Program Version,EnergyPlus, Version 9.3.0-baff08990c, YMD=2021.04.24 20:36
1,5,Environment Title[],Latitude[deg],Longitude[deg],Time Zone[],Elevation[m]
2,8,Day of Simulation[],Month[],Day of Month[],DST Indicator[1=yes 0=no],Hour[],StartMinute[],EndMinute[],DayType
3,5,Cumulative Day of Simulation[],Month[],Day of Month[],DST Indicator[1=yes 0=no],DayType  ! When Daily Report Variables Requested
4,2,Cumulative Days of Simulation[],Month[]  ! When Monthly Report Variables Requested
5,1,Cumulative Days of Simulation[] ! When Run Period Report Variables Requested
6,1,Calendar Year of Simulation[] ! When Annual Report Variables Requested
7,1,ROOM_3AFFABF2,Zone People Total Heating Energy [J] !Hourly
8,1,ROOM_ADD25499,Zone People Total Heating Energy [J] !Hourly
9,1,ROOM_D0860DAB,Zone People Total Heating Energy [J] !Hourly
10,1,ROOM_E16F8541,Zone People Total Heating Energy [J] !Hourly
11,1,ROOM_ED4AB4AB,Zone People Total Heating Energy [J] !Hourly
274,1,ROOM_3AFFABF2,Zone Windows Total Transmitted Solar Radiation Energy [J] !Hourly
275,1,ROOM_ADD25499,Zone Windows Total Transmitted Solar Radiation Energy [J] !Hourly
276,1,ROOM_D0860DAB,Zone Windows Total Transmitted Solar Radiation Energy [J] !Hourly
277,1,ROOM_E16F8541,Zone Windows Total Transmitted Solar Radiation Energy [J] !Hourly
278,1,ROOM_ED4AB4AB,Zone Windows Total Transmitted Solar Radiation Energy [J] !Hourly
279,1,ROOM_3AFFABF2..FACE2_GLZ1,Surface Window Heat Gain Energy [J] !Hourly
280,1,ROOM_3AFFABF2..FACE2_GLZ1,Surface Window Heat Loss Energy [J] !Hourly
281,1,ROOM_3AFFABF2..FACE3_GLZ1,Surface Window Heat Gain Energy [J] !Hourly
282,1,ROOM_3AFFABF2..FACE3_GLZ1,Surface Window Heat Loss Energy [J] !Hourly
283,1,ROOM_3AFFABF2..FACE4_GLZ1,Surface Window Heat Gain Energy [J] !Hourly
284,1,ROOM_3AFFABF2..FACE4_GLZ1,Surface Window Heat Loss Energy [J] !Hourly
285,1,ROOM_ADD25499..FACE3_GLZ1,Surface Window Heat Gain Energy [J] !Hourly
286,1,ROOM_ADD25499..FACE3_GLZ1,Surface Window Heat Loss Energy [J] !Hourly
287,1,ROOM_D0860DAB..FACE3_GLZ1,Surface Window Heat Gain Energy [J] !Hourly
288,1,ROOM_D0860DAB..FACE3_GLZ1,Surface Window Heat Loss Energy [J] !Hourly
289,1,ROOM_D0860DAB..FACE4_GLZ1,Surface Window Heat Gain Energy [J] !Hourly
290,1,ROOM_D0860DAB..FACE4_GLZ1,Surface Window Heat Loss Energy [J] !Hourly
291,1,ROOM_E16F8541..FACE1_GLZ1,Surface Window Heat Gain Energy [J] !Hourly
292,1,ROOM_E16F8541..FACE1_GLZ1,Surface Window Heat Loss Energy [J] !Hourly
293,1,ROOM_E16F8541..FACE2_GLZ1,Surface Window Heat Gain Energy [J] !Hourly
294,1,ROOM_E16F8541..FACE2_GLZ1,Surface Window Heat Loss Energy [J] !Hourly
295,1,ROOM_ED4AB4AB..FACE1_GLZ1,Surface Window Heat Gain Energy [J] !Hourly
296,1,ROOM_ED4AB4AB..FACE1_GLZ1,Surface Window Heat Loss Energy [J] !Hourly
297,1,ROOM_ED4AB4AB..FACE4_GLZ1,Surface Window Heat Gain Energy [J] !Hourly
298,1,ROOM_ED4AB4AB..FACE4_GLZ1,Surface Window Heat Loss Energy [J] !Hourly
299,1,ROOM_3AFFABF2..FACE1,Surface Average Face Conduction Heat Transfer Energy [J] !Hourly
300,1,ROOM_3AFFABF2..FACE2,Surface Outside Face Solar Radiation Heat Gain Energy [J] !Hourly
301,1,ROOM_3AFFABF2..FACE2,Surface Average Face Conduction Heat Transfer Energy [J] !Hourly
302,1,ROOM_3AFFABF2..FACE3,Surface Outside Face Solar Radiation Heat Gain Energy [J] !Hourly
303,1,ROOM_3AFFABF2..FACE3,Surface Average Face Conduction Heat Transfer Energy [J] !Hourly
304,1,ROOM_3AFFABF2..FACE4,Surface Outside Face Solar Radiation Heat Gain Energy [J] !Hourly
305,1,ROOM_3AFFABF2..FACE4,Surface Average Face Conduction Heat Transfer Energy [J] !Hourly
306,1,ROOM_3AFFABF2..FACE5,Surface Average Face Conduction Heat Transfer Energy [J] !Hourly
307,1,ROOM_3AFFABF2..FACE0,Surface Average Face Conduction Heat Transfer Energy [J] !Hourly
308,1,ROOM_3AFFABF2..FACE6,Surface Average Face Conduction Heat Transfer Energy [J] !Hourly
309,1,ROOM_ADD25499..FACE1,Surface Average Face Conduction Heat Transfer Energy [J] !Hourly
310,1,ROOM_ADD25499..FACE2,Surface Average Face Conduction Heat Transfer Energy [J] !Hourly
311,1,ROOM_ADD25499..FACE3,Surface Outside Face Solar Radiation Heat Gain Energy [J] !Hourly
312,1,ROOM_ADD25499..FACE3,Surface Average Face Conduction Heat Transfer Energy [J] !Hourly
313,1,ROOM_ADD25499..FACE4,Surface Average Face Conduction Heat Transfer Energy [J] !Hourly
314,1,ROOM_ADD25499..FACE0,Surface Average Face Conduction Heat Transfer Energy [J] !Hourly
315,1,ROOM_ADD25499..FACE5,Surface Average Face Conduction Heat Transfer Energy [J] !Hourly
316,1,ROOM_D0860DAB..FACE1,Surface Average Face Conduction Heat Transfer Energy [J] !Hourly
317,1,ROOM_D0860DAB..FACE2,Surface Average Face Conduction Heat Transfer Energy [J] !Hourly
318,1,ROOM_D0860DAB..FACE3,Surface Outside Face Solar Radiation Heat Gain Energy [J] !Hourly
319,1,ROOM_D0860DAB..FACE3,Surface Average Face Conduction Heat Transfer Energy [J] !Hourly
320,1,ROOM_D0860DAB..FACE4,Surface Outside Face Solar Radiation Heat Gain Energy [J] !Hourly
321,1,ROOM_D0860DAB..FACE4,Surface Average Face Conduction Heat Transfer Energy [J] !Hourly
322,1,ROOM_D0860DAB..FACE0,Surface Average Face Conduction Heat Transfer Energy [J] !Hourly
323,1,ROOM_D0860DAB..FACE5,Surface Average Face Conduction Heat Transfer Energy [J] !Hourly
324,1,ROOM_E16F8541..FACE1,Surface Outside Face Solar Radiation Heat Gain Energy [J] !Hourly
325,1,ROOM_E16F8541..FACE1,Surface Average Face Conduction Heat Transfer Energy [J] !Hourly
326,1,ROOM_E16F8541..FACE2,Surface Outside Face Solar Radiation Heat Gain Energy [J] !Hourly
327,1,ROOM_E16F8541..FACE2,Surface Average Face Conduction Heat Transfer Energy [J] !Hourly
328,1,ROOM_E16F8541..FACE3,Surface Average Face Conduction Heat Transfer Energy [J] !Hourly
329,1,ROOM_E16F8541..FACE4,Surface Average Face Conduction Heat Transfer Energy [J] !Hourly
330,1,ROOM_E16F8541..FACE5,Surface Average Face Conduction Heat Transfer Energy [J] !Hourly
331,1,ROOM_E16F8541..FACE0,Surface Average Face Conduction Heat Transfer Energy [J] !Hourly
332,1,ROOM_E16F8541..FACE6,Surface Average Face Conduction Heat Transfer Energy [J] !Hourly
333,1,ROOM_ED4AB4AB..FACE1,Surface Outside Face Solar Radiation Heat Gain Energy [J] !Hourly
334,1,ROOM_ED4AB4AB..FACE1,Surface Average Face Conduction Heat Transfer Energy [J] !Hourly
335,1,ROOM_ED4AB4AB..FACE2,Surface Average Face Conduction Heat Transfer Energy [J] !Hourly
336,1,ROOM_ED4AB4AB..FACE3,Surface Average Face Conduction Heat Transfer Energy [J] !Hourly
337,1,ROOM_ED4AB4AB..FACE4,Surface Outside Face Solar Radiation Heat Gain Energy [J] !Hourly
338,1,ROOM_ED4AB4AB..FACE4,Surface Average Face Conduction Heat Transfer Energy [J] !Hourly
339,1,ROOM_ED4AB4AB..FACE0,Surface Average Face Conduction Heat Transfer Energy [J] !Hourly
340,1,ROOM_ED4AB4AB..FACE5,Surface Average Face Conduction Heat Transfer Energy [J] !Hourly
341,1,ROOM_3AFFABF2,Zone Infiltration Total Heat Loss Energy [J] !Hourly
342,1,ROOM_3AFFABF2,Zone Infiltration Total Heat Gain Energy [J] !Hourly
343,1,ROOM_ADD25499,Zone Infiltration Total Heat Loss Energy [J] !Hourly
344,1,ROOM_ADD25499,Zone Infiltration Total Heat Gain Energy [J] !Hourly
345,1,ROOM_D0860DAB,Zone Infiltration Total Heat Loss Energy [J] !Hourly
346,1,ROOM_D0860DAB,Zone Infiltration Total Heat Gain Energy [J] !Hourly
347,1,ROOM_E16F8541,Zone Infiltration Total Heat Loss Energy [J] !Hourly
348,1,ROOM_E16F8541,Zone Infiltration Total Heat Gain Energy [J] !Hourly
349,1,ROOM_ED4AB4AB,Zone Infiltration Total Heat Loss Energy [J] !Hourly
350,1,ROOM_ED4AB4AB,Zone Infiltration Total Heat Gain Energy [J] !Hourly
760,1,ROOM_3AFFABF2 IDEAL LOADS AIR SYSTEM,Zone Ideal Loads Supply Air Total Heating Energy [J] !Hourly
809,1,ROOM_3AFFABF2 IDEAL LOADS AIR SYSTEM,Zone Ideal Loads Supply Air Total Cooling Energy [J] !Hourly
858,1,ROOM_3AFFABF2 IDEAL LOADS AIR SYSTEM,Zone Ideal Loads Zone Total Heating Energy [J] !Hourly
859,1,ROOM_3AFFABF2 IDEAL LOADS AIR SYSTEM,Zone Ideal Loads Zone Total Cooling Energy [J] !Hourly
860,1,ROOM_ADD25499 IDEAL LOADS AIR SYSTEM,Zone Ideal Loads Supply Air Total Heating Energy [J] !Hourly
861,1,ROOM_ADD25499 IDEAL LOADS AIR SYSTEM,Zone Ideal Loads Supply Air Total Cooling Energy [J] !Hourly
862,1,ROOM_ADD25499 IDEAL LOADS AIR SYSTEM,Zone Ideal Loads Zone Total Heating Energy [J] !Hourly
863,1,ROOM_ADD25499 IDEAL LOADS AIR SYSTEM,Zone Ideal Loads Zone Total Cooling Energy [J] !Hourly
864,1,ROOM_D0860DAB IDEAL LOADS AIR SYSTEM,Zone Ideal Loads Supply Air Total Heating Energy [J] !Hourly
865,1,ROOM_D0860DAB IDEAL LOADS AIR SYSTEM,Zone Ideal Loads Supply Air Total Cooling Energy [J] !Hourly
866,1,ROOM_D0860DAB IDEAL LOADS AIR SYSTEM,Zone Ideal Loads Zone Total Heating Energy [J] !Hourly
867,1,ROOM_D0860DAB IDEAL LOADS AIR SYSTEM,Zone Ideal Loads Zone Total Cooling Energy [J] !Hourly
868,1,ROOM_E16F8541 IDEAL LOADS AIR SYSTEM,Zone Ideal Loads Supply Air Total Heating Energy [J] !Hourly
869,1,ROOM_E16F8541 IDEAL LOADS AIR SYSTEM,Zone Ideal Loads Supply Air Total Cooling Energy [J] !Hourly
870,1,ROOM_E16F8541 IDEAL LOADS AIR SYSTEM,Zone Ideal Loads Zone Total Heating Energy [J] !Hourly
871,1,ROOM_E16F8541 IDEAL LOADS AIR SYSTEM,Zone Ideal Loads Zone Total Cooling Energy [J] !Hourly
872,1,ROOM_ED4AB4AB IDEAL LOADS AIR SYSTEM,Zone Ideal Loads Supply Air Total Heating Energy [J] !Hourly
873,1,ROOM_ED4AB4AB IDEAL LOADS AIR SYSTEM,Zone Ideal Loads Supply Air Total Cooling Energy [J] !Hourly
874,1,ROOM_ED4AB4AB IDEAL LOADS AIR SYSTEM,Zone Ideal Loads Zone Total Heating Energy [J] !Hourly
875,1,ROOM_ED4AB4AB IDEAL LOADS AIR SYSTEM,Zone Ideal Loads Zone Total Cooling Energy [J] !Hourly
End of Data Dictionary
1,RUN PERIOD 1,  42.37, -71.02,  -5.00,   6.00
2,1, 1, 1, 0, 1, 0.00,60.00,Sunday
7,0.0
8,0.0
9,0.0
10,0.0
11,0.0
274,0.0
275,0.0
276,0.0
277,0.0
278,0.0
279,0.0
280,183292.35123456477
281,0.0
282,152105.44012420695
283,0.0
284,197990.84911850783
285,0.0
286,181572.2337000719
287,0.0
288,168840.5951028656
289,0.0
290,156314.21905585667
291,0.0
292,195099.98537824726
293,0.0
294,262613.33748121667
295,0.0
296,176241.70425466696
297,0.0
298,267343.68086222177
299,1081.6487140271868
300,0.0
301,-293365.35969336659
302,0.0
303,-108444.04180254268
304,0.0
305,-91640.08927721447
306,10937.001221142551
307,93350.72994633662
308,7994.745811903341
309,8950.218056461053
310,-13076.117126469107
311,0.0
312,-79901.91836404513
313,-6105.922125414193
314,23903.593061138617
315,3928.0710989942779
316,15738.267985918445
317,4778.120254507424
318,0.0
319,-77027.81710747638
320,0.0
321,-148597.70116912607
322,46528.718188324216
323,4925.657307687681
324,0.0
325,-367900.20336990119
326,0.0
327,-193695.0642342469
328,-1037.2577569677433
329,-7060.581359283383
330,6064.762927487825
331,154278.48337831995
332,23014.58911593977
333,0.0
334,-331382.68870024677
335,1603.175216925418
336,-14194.514120668959
337,0.0
338,-256020.74263166885
339,171574.2434105202
340,25689.408327341032
341,357457.55760106447
342,0.0
343,114706.79143457947
344,0.0
345,210432.0122621007
346,0.0
347,287624.65241894297
348,0.0
349,275583.92480767678
350,0.0
760,1130341.6515998049
809,0.0
858,912574.2522499998
859,0.0
860,531667.5627637786
861,0.0
862,341110.9285207428
863,0.0
864,730879.6277834909
865,0.0
866,548470.84385554
867,0.0
868,858647.1609977495
869,0.0
870,523284.1218072732
871,0.0
872,764611.5122106882
873,0.0
874,462859.2225792419
875,0.0
2,1, 1, 1, 0, 2, 0.00,60.00,Sunday
7,0.0
8,0.0
9,0.0
10,0.0
11,0.0
274,0.0
275,0.0
276,0.0
277,0.0
278,0.0
279,0.0
280,141973.2750577432
281,0.0
282,117589.58132956384
283,0.0
284,152698.6140303579
285,0.0
286,140787.55367225962
287,0.0
288,130389.01246029149
289,0.0
290,121326.2811107022
291,0.0
292,151855.33352025276
293,0.0
294,204937.6030358896
295,0.0
296,137242.8066814053
297,0.0
298,208014.20968589557
299,951.9337220704331
300,0.0
301,-85644.30648266565
302,0.0
303,50592.60789540302
304,0.0
305,109566.50231300036
306,10022.966256853479
307,72519.3581860247
308,4104.881103112032
309,7095.553314002247
310,-12594.9493327836
311,0.0
312,97012.31418007196
313,-6130.3699085757339
314,17956.056236726516
315,2113.351980366565
316,13415.094948954402
317,4038.650227481783
318,0.0
319,91839.47754519705
320,0.0
321,13377.607602529273
322,35665.25802791834
323,2521.8748593502657
324,0.0
325,-151944.3953986692
326,0.0
327,65165.09409054792
328,-992.1421709028228
329,-6868.096398712316
330,3987.0811598955444
331,127709.3595220288
332,16418.776991300572
333,0.0
334,-137339.1315235616
335,334.90851379407726
336,-13292.336599230392
337,0.0
338,12426.907169806067
339,142387.93708642448
340,18639.728615827687
341,282549.81578753606
342,0.0
343,87871.63905551592
344,0.0
345,164707.3337841989
346,0.0
347,222918.2698864433
348,0.0
349,214057.8801456571
350,0.0
760,942132.5428959517
809,0.0
858,766773.5526262401
859,0.0
860,444073.58102776858
861,0.0
862,296158.3246928866
863,0.0
864,608246.3426554106
865,0.0
866,463145.5614011744
867,0.0
868,702496.2837025443
869,0.0
870,438732.67401266979
871,0.0
872,626227.9097710487
873,0.0
874,388294.05314029767
875,0.0
2,1, 1, 1, 0, 3, 0.00,60.00,Sunday
7,0.0
8,0.0
9,0.0
10,0.0
11,0.0
274,0.0
275,0.0
276,0.0
277,0.0
278,0.0
279,0.0
280,145448.89632024384
281,0.0
282,120393.55660720734
283,0.0
284,156372.34192809114
285,0.0
286,144430.8060127336
287,0.0
288,133681.23886117774
289,0.0
290,124333.9860886945
291,0.0
292,155017.02794282969
293,0.0
294,209204.92741780374
295,0.0
296,139960.74546850348
297,0.0
298,212138.64275835688
299,1063.3078813585688
300,0.0
301,-148732.78203952558
302,0.0
303,-9846.010662065783
304,0.0
305,27493.604023827596
306,13133.366306262093
307,64665.21236972205
308,4031.435143469713
309,7255.953997839585
310,-11220.22641009756
311,0.0
312,22602.227308701706
313,-4822.789490490404
314,16059.850883110328
315,1771.6867113257723
316,14296.958638905193
317,6174.264223718777
318,0.0
319,21913.546395135483
320,0.0
321,-45109.26718559723
322,31942.038368912512
323,2370.0619906502827
324,0.0
325,-211278.5984001307
326,0.0
327,-34629.383286126205
328,-803.568964656509
329,-3675.6476678004557
330,6371.5839551576959
331,114339.47531679718
332,14220.864990643538
333,0.0
334,-190628.87900676827
335,3707.112477250786
336,-9841.871980722015
337,0.0
338,-84621.34979344312
339,126121.84566455664
340,15922.391477541296
341,307465.3375560017
342,0.0
343,97437.78814862247
344,0.0
345,180643.46579673029
346,0.0
347,245875.73936881976
348,0.0
349,235816.43973513685
350,0.0
760,974611.3333181392
809,0.0
858,780282.7526693647
859,0.0
860,455144.9051976002
861,0.0
862,288535.7673749244
863,0.0
864,627040.6362028071
865,0.0
866,465055.0268059329
867,0.0
868,752283.0555774843
869,0.0
870,456421.3133360923
871,0.0
872,679910.4861963156
873,0.0
874,413293.06698255296
875,0.0
2,1, 1, 1, 0, 4, 0.00,60.00,Sunday
7,0.0
8,0.0
9,0.0
10,0.0
11,0.0
274,0.0
275,0.0
276,0.0
277,0.0
278,0.0
279,0.0
280,147230.63603885944
281,0.0
282,121789.75833392414
283,0.0
284,158209.00343968499
285,0.0
286,146468.6763048665
287,0.0
288,135448.1897608957
289,0.0
290,125983.10720146355
291,0.0
292,156557.8479173649
293,0.0
294,211159.90942889662
295,0.0
296,141216.06832712383
297,0.0
298,214019.74285825727
299,1050.3822408746444
300,0.0
301,-173655.52888573439
302,0.0
303,-40571.478042730334
304,0.0
305,-16232.03701261333
306,14174.162251831844
307,58114.6786910463
308,4023.6910024889928
309,6295.22863619626
310,-11462.447149641259
311,0.0
312,-16485.07942177397
313,-4731.434268482798
314,14960.290725180945
315,1701.9991163292212
316,13416.04937228034
317,6843.198578185971
318,0.0
319,-15076.214870712325
320,0.0
321,-72778.88976387444
322,29045.974121535426
323,2354.00197009772
324,0.0
325,-231462.4073869916
326,0.0
327,-84007.09617514159
328,-749.3118004458843
329,-2115.9555611891307
330,6101.145833144445
331,103892.40027784443
332,12619.409621164816
333,0.0
334,-208731.7863113648
335,4277.8143555577539
336,-8430.795906266185
337,0.0
338,-130113.0996778959
339,112954.67232641304
340,13895.275178215765
341,316790.16632019708
342,0.0
343,101846.69569117119
344,0.0
345,186988.7188775279
346,0.0
347,255664.99555048836
348,0.0
349,244955.03194806796
350,0.0
760,1007933.9975455188
809,0.0
858,807040.959633912
859,0.0
860,467869.3401020219
861,0.0
862,292859.45822101787
863,0.0
864,646732.9503876407
865,0.0
866,478378.42779846259
867,0.0
868,797080.5551674119
869,0.0
870,488040.3882199359
871,0.0
872,729327.9573063017
873,0.0
874,451146.5716524357
875,0.0
2,1, 1, 1, 0, 5, 0.00,60.00,Sunday
7,0.0
8,0.0
9,0.0
10,0.0
11,0.0
274,0.0
275,0.0
276,0.0
277,0.0
278,0.0
279,0.0
280,146607.8383917372
281,0.0
282,121249.04187938274
283,0.0
284,157493.85467628225
285,0.0
286,146072.36815142068
287,0.0
288,134980.49795744057
289,0.0
290,125602.12990559318
291,0.0
292,155696.85819549833
293,0.0
294,209854.75882583156
295,0.0
296,140347.71114466917
297,0.0
298,212671.54794703963
299,997.1011993723583
300,0.0
301,-173883.26772691063
302,0.0
303,-50507.17773111924
304,0.0
305,-32768.09017522494
306,14428.58550947609
307,51559.17209852512
308,3735.94668507384
309,5027.396328249921
310,-12064.311427586117
311,0.0
312,-31266.982643676827
313,-5017.74940262117
314,13827.416881322728
315,1602.3683382074747
316,12084.158176490262
317,6926.6320225764179
318,0.0
319,-29055.637582335545
320,0.0
321,-79825.81662909698
322,26088.77299724756
323,2203.0251619752295
324,0.0
325,-227116.42093880598
326,0.0
327,-98935.54962607773
328,-734.8165234215499
329,-1250.6957184731433
330,5136.074324095622
331,94928.12393011923
332,11108.133749794382
333,0.0
334,-204804.6549900931
335,3950.728288681339
336,-7737.135232037917
337,0.0
338,-141319.5209043043
339,101474.76947474746
340,12031.974681518455
341,319968.1388220255
342,0.0
343,103701.66889529578
344,0.0
345,189297.08346605174
346,0.0
347,259463.24407897829
348,0.0
349,248446.4500191757
350,0.0
760,1025756.7844855101
809,0.0
858,823977.3639438965
859,1718.3424452561838
860,474606.85066783477
861,0.0
862,296645.17481828076
863,868.8508453899743
864,656981.9992272855
865,0.0
866,487328.34379343307
867,1307.5900228669298
868,823363.8617627679
869,0.0
870,510762.8519617162
871,2070.853057647605
872,761212.6100696049
873,0.0
874,480088.1867568629
875,1944.608259960762
2,1, 1, 1, 0, 6, 0.00,60.00,Sunday
7,0.0
8,0.0
9,0.0
10,0.0
11,0.0
274,0.0
275,0.0
276,0.0
277,0.0
278,0.0
279,0.0
280,146606.5624607205
281,0.0
282,121321.68237044555
283,0.0
284,157573.20436236205
285,0.0
286,146394.5644232616
287,0.0
288,135180.19581232573
289,0.0
290,125695.75606965504
291,0.0
292,155438.30637384367
293,0.0
294,209782.28209969618
295,0.0
296,140034.21542038394
297,0.0
298,212210.4871592795
299,949.3675888351423
300,0.0
301,-173079.86090921338
302,0.0
303,-53736.09179234444
304,0.0
305,-38482.34367360664
306,14640.008317248821
307,45642.774031093104
308,3396.8041621379027
309,3881.044369501767
310,-12571.478585941293
311,0.0
312,-36502.698220069586
313,-5277.86968400589
314,12741.822902279873
315,1489.0260820292938
316,10917.29008481291
317,6972.019635880302
318,0.0
319,-33952.243717689926
320,0.0
321,-82406.60929424023
322,23375.982883980792
323,2021.0441235542367
324,0.0
325,-223279.02027615973
326,0.0
327,-104706.00964305761
328,-720.843116145863
329,-520.5557097564278
330,4307.881246078148
331,86266.05892334235
332,9773.485542972376
333,0.0
334,-201328.07386630245
335,3699.7652135126
336,-7092.335227550738
337,0.0
338,-145411.21173403544
339,92215.38727157013
340,10452.96036599503
341,319325.6643596411
342,0.0
343,103959.25196711399
344,0.0
345,189128.51708530254
346,0.0
347,259578.61336391665
348,0.0
349,248471.4428758267
350,0.0
760,1041469.8606161689
809,0.0
858,839698.7563941747
859,1278.8874416535408
860,480858.1764727782
861,0.0
862,302682.31054921945
863,1229.5226344296426
864,666158.279814348
865,0.0
866,496513.84520110968
867,1186.1153804161803
868,848139.2174434328
869,0.0
870,535442.6250453792
871,2243.4592956422595
872,786854.5565043993
873,0.0
874,505671.5942549238
875,2011.9001302181233
2,1, 1, 1, 0, 7, 0.00,60.00,Sunday
7,8855.580331116003
8,7819.738982316
9,7445.6851619160029
10,13723.627789116
11,12340.630235916002
274,0.0
275,0.0
276,0.0
277,0.0
278,0.0
279,0.0
280,149683.65592979984
281,0.0
282,123917.13993852736
283,0.0
284,160947.7737287588
285,0.0
286,149658.45139761395
287,0.0
288,138167.5334640004
289,0.0
290,128479.0010615042
291,0.0
292,158207.63479465544
293,0.0
294,213994.32794361434
295,0.0
296,142463.81216705036
297,0.0
298,216272.79482747828
299,899.2564035549551
300,0.0
301,-191498.77969978093
302,0.0
303,-71736.88779158112
304,0.0
305,-63079.55633111659
306,14761.36436909917
307,40100.69375447604
308,2971.348214619112
309,2556.9761516426249
310,-13300.299399626718
311,0.0
312,-58595.18459614706
313,-5795.048844291781
314,11148.563503843121
315,1162.7887026679403
316,9730.241185756819
317,6858.092286572883
318,0.0
319,-54801.42094543831
320,0.0
321,-99594.77129182189
322,20567.295990045066
323,1709.877329868497
324,0.0
325,-238707.8707251427
326,0.0
327,-135784.61881169468
328,-727.7368105918454
329,-215.99252848725573
330,3118.0311571074737
331,77055.06852279109
332,8239.989897403302
333,0.0
334,-215152.59943007033
335,3090.851867257802
336,-6809.791511753881
337,0.0
338,-174042.69070246729
339,82605.33849105638
340,8810.237601305631
341,325107.38524542018
342,0.0
343,105860.37425122608
344,0.0
345,192514.15015446445
346,0.0
347,264234.68361726359
348,0.0
349,252922.714067261
350,0.0
760,1055679.261126467
809,0.0
858,849817.4467350099
859,177.9946834519535
860,480678.3275015952
861,0.0
862,298898.82546501318
863,367.28785397648098
864,671904.5018260088
865,0.0
866,498820.11415039558
867,239.23919602555089
868,863684.4880626669
869,0.0
870,544660.6251167747
871,558.7196319102475
872,804527.5613652223
873,0.0
874,517653.3736687626
875,479.7351582690567
2,1, 1, 1, 0, 8, 0.00,60.00,Sunday
7,8855.580331116003
8,7819.738982316
9,7445.6851619160029
10,13723.627789116
11,12340.630235916002
274,116906.19938960303
275,21138.10997639283
276,38653.99859434379
277,123497.07315170128
278,74146.16826334319
279,0.0
280,94804.43049236064
281,4009.0700264899808
282,69955.96073416445
283,0.0
284,134253.87886779695
285,0.0
286,126582.16245069116
287,0.0
288,115904.42991679647
289,0.0
290,108185.30433544112
291,0.0
292,99438.36818976823
293,3505.874755977046
294,125937.25485101773
295,0.0
296,89443.652507954
297,0.0
298,182329.3834119689
299,482.17163626969588
300,210092.83467019944
301,-134226.88263554834
302,217610.8538740765
303,-17083.70836340465
304,112237.31397585836
305,-54941.28050371934
306,8028.841233171269
307,12917.003829451152
308,-572.1358797224915
309,253.68893560317668
310,-14835.599490838224
311,98417.8157021057
312,-47574.094022327525
313,-7365.850296479501
314,6823.817582930684
315,386.8732591779394
316,5956.051198875463
317,4169.88520256758
318,94145.50851978916
319,-45007.322801569666
320,85972.59508270357
321,-87555.69342782848
322,12770.491610080833
323,464.436432602851
324,224528.79975501274
325,-173651.26347726095
326,340790.6908002647
327,-47074.70747530195
328,-1065.3935414452915
329,-5866.0082769169589
330,-6475.6647774981579
331,40756.08353723718
332,3020.818866053115
333,201984.359759735
334,-155253.40570442825
335,-2775.1441671046025
336,-10107.855936595673
337,142399.1779004209
338,-154718.3260186318
339,59578.662684880735
340,5211.082751053636
341,332880.8228750169
342,0.0
343,108510.23694352122
344,0.0
345,197193.72906028079
346,0.0
347,270740.87676805126
348,0.0
349,259133.4179303099
350,0.0
760,1047770.8789492116
809,0.0
858,839085.5755402745
859,2267.5267465559556
860,484180.10981285889
861,0.0
862,299896.24568914427
863,2325.2741244585397
864,675628.8998055956
865,0.0
866,500171.48717484148
867,2034.1020079005887
868,865550.7612356094
869,0.0
870,542131.2314592062
871,3904.687622764578
872,817903.3067897717
873,0.0
874,527081.2586621202
875,3482.6340863692505
2,1, 1, 1, 0, 9, 0.00,60.00,Sunday
7,8855.580331116003
8,7819.738982316
9,7445.6851619160029
10,13723.627789116
11,12340.630235916002
274,861576.4206963428
275,82118.86218076416
276,149679.4600449604
277,979572.5266171119
278,491218.8862641783
279,407544.78135321396
280,0.0
281,286369.20619684396
282,0.0
283,0.0
284,47826.26169398126
285,0.0
286,50186.965823665865
287,0.0
288,43255.773359723345
289,0.0
290,41520.76245030659
291,361623.05703709649
292,0.0
293,502368.50844866517
294,0.0
295,326975.8319987537
296,0.0
297,0.0
298,71045.93020082393
299,-1252.0920459654095
300,1936320.9569885242
301,445731.2770010624
302,1474376.4300689027
303,378602.6381990211
304,442782.7531937037
305,475.5404898128342
306,-26982.190667754614
307,-184890.92439265079
308,-20339.8319301946
309,-472.23536499814755
310,-13787.328305849123
311,381755.11519752777
312,19974.661855066566
313,-10685.653879307436
314,-6301.42057112914
315,-2494.1884274134015
316,382.8101273893429
317,-2282.149171209632
318,362680.38712841589
319,17643.77890862186
320,332913.04424623996
321,-22666.03473652153
322,-6946.646200903637
323,-3138.0707104735217
324,1866883.1319137787
325,376431.13730088659
326,2502816.3781789906
327,652231.0885885903
328,-2828.4757205018688
329,-40598.52323505027
330,-55254.16718210541
331,-214474.21120873799
332,-25998.152507686445
333,1679045.9468213223
334,349201.51015564936
335,-23112.177310157713
336,-26113.41088999463
337,560772.3387893526
338,-52798.07515464892
339,-61517.80956796196
340,-9348.750383536075
341,332812.07627785557
342,0.0
343,108694.18905597362
344,0.0
345,197277.0911121419
346,0.0
347,271005.49822494559
348,0.0
349,259352.5471539473
350,0.0
760,835897.4877700971
809,0.0
858,627222.6576003322
859,1879.4384329298339
860,452922.4122079852
861,0.0
862,268654.4416988997
863,2410.4378480692159
864,631934.351055953
865,0.0
866,456489.7968596588
867,1850.4536028435182
868,663110.019201867
869,0.0
870,339698.685814312
871,3765.7993128000496
872,713943.5659351451
873,0.0
874,423136.3696169532
875,3319.793621741491
2,1, 1, 1, 0,10, 0.00,60.00,Sunday
7,8855.580331116003
8,7819.738982316
9,7445.6851619160029
10,13723.627789116
11,12340.630235916002
274,2383972.801559896
275,137124.21202989389
276,251361.27552613565
277,2699398.8578373806
278,1419135.6162069112
279,1677733.4007108655
280,0.0
281,821942.0562408416
282,0.0
283,12291.014191177474
284,4135.11629994306
285,14040.11706311294
286,4795.434078012839
287,15925.45003437038
288,3475.200676165059
289,17393.496117966166
290,2927.017095500879
291,1508194.7640006317
292,0.0
293,1495666.6819846235
294,0.0
295,1364861.2506403493
296,0.0
297,27608.55436453773
298,4732.166223053782
299,-3468.9726369699139
300,6444386.390197275
301,1650572.834249543
302,3462632.5222006647
303,813539.8269667411
304,755940.9343331183
305,-24716.20565926103
306,-87378.88129448313
307,-576988.3469439375
308,-60916.314637912816
309,17108.122984039626
310,5600.427183471807
311,630766.7844149903
312,20106.993271473162
313,-14999.007350426542
314,-25173.361280669742
315,-7557.51842534781
316,7066.661519376385
317,-5442.128906883874
318,595005.9981607936
319,18524.57947087013
320,570582.600641761
321,-9914.807978566949
322,-25237.137161364015
323,-6516.94070324814
324,5960751.141548015
325,1461883.3726308908
326,6016225.790261508
327,1439213.3579853902
328,-4859.627032814118
329,-98321.20955065002
330,-122447.03772564075
331,-690288.974140593
332,-83025.68389206064
333,5360477.469496093
334,1336415.833214945
335,-38631.82331237
336,-58373.41531302902
337,990007.7331013559
338,-44510.45424831774
339,-331506.5135353674
340,-40556.28690986385
341,344666.66347564136
342,0.0
343,112754.26251347858
344,0.0
345,204450.36597936112
346,0.0
347,282477.20877240676
348,0.0
349,268888.9832954044
350,0.0
760,275590.5539905482
809,0.0
858,80745.21440835382
859,23038.919693696756
860,394427.66488826487
861,0.0
862,205926.51815825705
863,4884.959923519464
864,583253.6202287019
865,0.0
866,403813.40554054229
867,4107.567931266422
868,78589.6850598425
869,0.0
870,0.0
871,261155.02481050799
872,416817.53428753316
873,0.0
874,119271.30919757694
875,7030.374252911415
2,1, 1, 1, 0,11, 0.00,60.00,Sunday
7,8855.580331116003
8,7819.738982316
9,7445.6851619160029
10,13723.627789116
11,12340.630235916002
274,1952352.2292562435
275,192589.9589082177
276,359980.80862888655
277,2003936.2783297445
278,1456818.845471769
279,1454205.6687541325
280,0.0
281,419413.55585760858
282,0.0
283,84144.22187565395
284,0.0
285,81493.1654506132
286,0.0
287,84773.22444052373
288,0.0
289,85757.13704270299
290,0.0
291,1434648.7097577544
292,0.0
293,689661.1482616264
294,0.0
295,1298612.3388301689
296,0.0
297,133424.39791207724
298,0.0
299,-804.0866409527215
300,5800605.98311474
301,1161813.8717423238
302,2197313.1205008316
303,287570.28600086268
304,1033825.9683081824
305,112929.10944012403
306,-60302.94812877485
307,-355396.5648744275
308,-52413.96485932019
309,33311.22951851926
310,24558.94861331923
311,880779.1449815938
312,109613.9683730372
313,-17916.591800668328
314,-46007.93105792356
315,-12548.289180351228
316,15273.217132778149