Program Version,EnergyPlus, Version 9.3.0-baff08990c, YMD=2021.04.24 21:16
1,5,Environment Title[],Latitude[deg],Longitude[deg],Time Zone[],Elevation[m]
2,8,Day of Simulation[],Month[],Day of Month[],DST Indicator[1=yes 0=no],Hour[],StartMinute[],EndMinute[],DayType
3,5,Cumulative Day of Simulation[],Month[],Day of Month[],DST Indicator[1=yes 0=no],DayType  ! When Daily Report Variables Requested
4,2,Cumulative Days of Simulation[],Month[]  ! When Monthly Report Variables Requested
5,1,Cumulative Days of Simulation[] ! When Run Period Report Variables Requested
6,1,Calendar Year of Simulation[] ! When Annual Report Variables Requested
7,1,ROOM_17F57B42,Zone People Total Heating Energy [J] !Hourly
8,1,ROOM_8D305412,Zone People Total Heating Energy [J] !Hourly
9,1,ROOM_A4C076D7,Zone People Total Heating Energy [J] !Hourly
10,1,ROOM_BB07A4B1,Zone People Total Heating Energy [J] !Hourly
11,1,ROOM_BD8241A1,Zone People Total Heating Energy [J] !Hourly
12,1,ROOM_BE8AAB70,Zone People Total Heating Energy [J] !Hourly
13,1,ROOM_C3E48042,Zone People Total Heating Energy [J] !Hourly
14,1,ROOM_DDA9C354,Zone People Total Heating Energy [J] !Hourly
391,1,ROOM_17F57B42,Zone Windows Total Transmitted Solar Radiation Energy [J] !Hourly
392,1,ROOM_8D305412,Zone Windows Total Transmitted Solar Radiation Energy [J] !Hourly
393,1,ROOM_A4C076D7,Zone Windows Total Transmitted Solar Radiation Energy [J] !Hourly
394,1,ROOM_BB07A4B1,Zone Windows Total Transmitted Solar Radiation Energy [J] !Hourly
395,1,ROOM_BD8241A1,Zone Windows Total Transmitted Solar Radiation Energy [J] !Hourly
396,1,ROOM_BE8AAB70,Zone Windows Total Transmitted Solar Radiation Energy [J] !Hourly
397,1,ROOM_C3E48042,Zone Windows Total Transmitted Solar Radiation Energy [J] !Hourly
398,1,ROOM_DDA9C354,Zone Windows Total Transmitted Solar Radiation Energy [J] !Hourly
399,1,ROOM_17F57B42..FACE1_GLZ1,Surface Window Heat Gain Energy [J] !Hourly
400,1,ROOM_17F57B42..FACE1_GLZ1,Surface Window Heat Loss Energy [J] !Hourly
401,1,ROOM_17F57B42..FACE2_GLZ1,Surface Window Heat Gain Energy [J] !Hourly
402,1,ROOM_17F57B42..FACE2_GLZ1,Surface Window Heat Loss Energy [J] !Hourly
403,1,ROOM_17F57B42..FACE3_GLZ1,Surface Window Heat Gain Energy [J] !Hourly
404,1,ROOM_17F57B42..FACE3_GLZ1,Surface Window Heat Loss Energy [J] !Hourly
405,1,ROOM_17F57B42..FACE4_GLZ1,Surface Window Heat Gain Energy [J] !Hourly
406,1,ROOM_17F57B42..FACE4_GLZ1,Surface Window Heat Loss Energy [J] !Hourly
407,1,ROOM_8D305412..FACE1_GLZ1,Surface Window Heat Gain Energy [J] !Hourly
408,1,ROOM_8D305412..FACE1_GLZ1,Surface Window Heat Loss Energy [J] !Hourly
409,1,ROOM_8D305412..FACE4_GLZ1,Surface Window Heat Gain Energy [J] !Hourly
410,1,ROOM_8D305412..FACE4_GLZ1,Surface Window Heat Loss Energy [J] !Hourly
411,1,ROOM_8D305412..FACE5_GLZ1,Surface Window Heat Gain Energy [J] !Hourly
412,1,ROOM_8D305412..FACE5_GLZ1,Surface Window Heat Loss Energy [J] !Hourly
413,1,ROOM_A4C076D7..FACE1_GLZ1,Surface Window Heat Gain Energy [J] !Hourly
414,1,ROOM_A4C076D7..FACE1_GLZ1,Surface Window Heat Loss Energy [J] !Hourly
415,1,ROOM_A4C076D7..FACE5_GLZ1,Surface Window Heat Gain Energy [J] !Hourly
416,1,ROOM_A4C076D7..FACE5_GLZ1,Surface Window Heat Loss Energy [J] !Hourly
417,1,ROOM_BB07A4B1..FACE1_GLZ1,Surface Window Heat Gain Energy [J] !Hourly
418,1,ROOM_BB07A4B1..FACE1_GLZ1,Surface Window Heat Loss Energy [J] !Hourly
419,1,ROOM_BB07A4B1..FACE2_GLZ1,Surface Window Heat Gain Energy [J] !Hourly
420,1,ROOM_BB07A4B1..FACE2_GLZ1,Surface Window Heat Loss Energy [J] !Hourly
421,1,ROOM_BD8241A1..FACE1_GLZ1,Surface Window Heat Gain Energy [J] !Hourly
422,1,ROOM_BD8241A1..FACE1_GLZ1,Surface Window Heat Loss Energy [J] !Hourly
423,1,ROOM_BD8241A1..FACE2_GLZ1,Surface Window Heat Gain Energy [J] !Hourly
424,1,ROOM_BD8241A1..FACE2_GLZ1,Surface Window Heat Loss Energy [J] !Hourly
425,1,ROOM_BD8241A1..FACE3_GLZ1,Surface Window Heat Gain Energy [J] !Hourly
426,1,ROOM_BD8241A1..FACE3_GLZ1,Surface Window Heat Loss Energy [J] !Hourly
427,1,ROOM_BD8241A1..FACE4_GLZ1,Surface Window Heat Gain Energy [J] !Hourly
428,1,ROOM_BD8241A1..FACE4_GLZ1,Surface Window Heat Loss Energy [J] !Hourly
429,1,ROOM_BE8AAB70..FACE1_GLZ1,Surface Window Heat Gain Energy [J] !Hourly
430,1,ROOM_BE8AAB70..FACE1_GLZ1,Surface Window Heat Loss Energy [J] !Hourly
431,1,ROOM_BE8AAB70..FACE2_GLZ1,Surface Window Heat Gain Energy [J] !Hourly
432,1,ROOM_BE8AAB70..FACE2_GLZ1,Surface Window Heat Loss Energy [J] !Hourly
433,1,ROOM_BE8AAB70..FACE5_GLZ1,Surface Window Heat Gain Energy [J] !Hourly
434,1,ROOM_BE8AAB70..FACE5_GLZ1,Surface Window Heat Loss Energy [J] !Hourly
435,1,ROOM_C3E48042..FACE2_GLZ1,Surface Window Heat Gain Energy [J] !Hourly
436,1,ROOM_C3E48042..FACE2_GLZ1,Surface Window Heat Loss Energy [J] !Hourly
437,1,ROOM_DDA9C354..FACE2_GLZ1,Surface Window Heat Gain Energy [J] !Hourly
438,1,ROOM_DDA9C354..FACE2_GLZ1,Surface Window Heat Loss Energy [J] !Hourly
439,1,ROOM_DDA9C354..FACE3_GLZ1,Surface Window Heat Gain Energy [J] !Hourly
440,1,ROOM_DDA9C354..FACE3_GLZ1,Surface Window Heat Loss Energy [J] !Hourly
441,1,ROOM_17F57B42..FACE1,Surface Outside Face Solar Radiation Heat Gain Energy [J] !Hourly
442,1,ROOM_17F57B42..FACE1,Surface Average Face Conduction Heat Transfer Energy [J] !Hourly
443,1,ROOM_17F57B42..FACE2,Surface Outside Face Solar Radiation Heat Gain Energy [J] !Hourly
444,1,ROOM_17F57B42..FACE2,Surface Average Face Conduction Heat Transfer Energy [J] !Hourly
445,1,ROOM_17F57B42..FACE3,Surface Outside Face Solar Radiation Heat Gain Energy [J] !Hourly
446,1,ROOM_17F57B42..FACE3,Surface Average Face Conduction Heat Transfer Energy [J] !Hourly
447,1,ROOM_17F57B42..FACE4,Surface Outside Face Solar Radiation Heat Gain Energy [J] !Hourly
448,1,ROOM_17F57B42..FACE4,Surface Average Face Conduction Heat Transfer Energy [J] !Hourly
449,1,ROOM_17F57B42..FACE0,Surface Average Face Conduction Heat Transfer Energy [J] !Hourly
450,1,ROOM_17F57B42..FACE5,Surface Average Face Conduction Heat Transfer Energy [J] !Hourly
451,1,ROOM_8D305412..FACE1,Surface Outside Face Solar Radiation Heat Gain Energy [J] !Hourly
452,1,ROOM_8D305412..FACE1,Surface Average Face Conduction Heat Transfer Energy [J] !Hourly
453,1,ROOM_8D305412..FACE2,Surface Average Face Conduction Heat Transfer Energy [J] !Hourly
454,1,ROOM_8D305412..FACE3,Surface Average Face Conduction Heat Transfer Energy [J] !Hourly
455,1,ROOM_8D305412..FACE4,Surface Outside Face Solar Radiation Heat Gain Energy [J] !Hourly
456,1,ROOM_8D305412..FACE4,Surface Average Face Conduction Heat Transfer Energy [J] !Hourly
457,1,ROOM_8D305412..FACE5,Surface Outside Face Solar Radiation Heat Gain Energy [J] !Hourly
458,1,ROOM_8D305412..FACE5,Surface Average Face Conduction Heat Transfer Energy [J] !Hourly
459,1,ROOM_8D305412..FACE0,Surface Average Face Conduction Heat Transfer Energy [J] !Hourly
460,1,ROOM_8D305412..FACE6,Surface Average Face Conduction Heat Transfer Energy [J] !Hourly
461,1,ROOM_A4C076D7..FACE1,Surface Outside Face Solar Radiation Heat Gain Energy [J] !Hourly
462,1,ROOM_A4C076D7..FACE1,Surface Average Face Conduction Heat Transfer Energy [J] !Hourly
463,1,ROOM_A4C076D7..FACE2,Surface Average Face Conduction Heat Transfer Energy [J] !Hourly
464,1,ROOM_A4C076D7..FACE3,Surface Average Face Conduction Heat Transfer Energy [J] !Hourly
465,1,ROOM_A4C076D7..FACE4,Surface Average Face Conduction Heat Transfer Energy [J] !Hourly
466,1,ROOM_A4C076D7..FACE5,Surface Outside Face Solar Radiation Heat Gain Energy [J] !Hourly
467,1,ROOM_A4C076D7..FACE5,Surface Average Face Conduction Heat Transfer Energy [J] !Hourly
468,1,ROOM_A4C076D7..FACE0,Surface Average Face Conduction Heat Transfer Energy [J] !Hourly
469,1,ROOM_A4C076D7..FACE6,Surface Average Face Conduction Heat Transfer Energy [J] !Hourly
470,1,ROOM_BB07A4B1..FACE1,Surface Outside Face Solar Radiation Heat Gain Energy [J] !Hourly
471,1,ROOM_BB07A4B1..FACE1,Surface Average Face Conduction Heat Transfer Energy [J] !Hourly
472,1,ROOM_BB07A4B1..FACE2,Surface Outside Face Solar Radiation Heat Gain Energy [J] !Hourly
473,1,ROOM_BB07A4B1..FACE2,Surface Average Face Conduction Heat Transfer Energy [J] !Hourly
474,1,ROOM_BB07A4B1..FACE3,Surface Average Face Conduction Heat Transfer Energy [J] !Hourly
475,1,ROOM_BB07A4B1..FACE4,Surface Average Face Conduction Heat Transfer Energy [J] !Hourly
476,1,ROOM_BB07A4B1..FACE0,Surface Average Face Conduction Heat Transfer Energy [J] !Hourly
477,1,ROOM_BB07A4B1..FACE5,Surface Average Face Conduction Heat Transfer Energy [J] !Hourly
478,1,ROOM_BD8241A1..FACE1,Surface Outside Face Solar Radiation Heat Gain Energy [J] !Hourly
479,1,ROOM_BD8241A1..FACE1,Surface Average Face Conduction Heat Transfer Energy [J] !Hourly
480,1,ROOM_BD8241A1..FACE2,Surface Outside Face Solar Radiation Heat Gain Energy [J] !Hourly
481,1,ROOM_BD8241A1..FACE2,Surface Average Face Conduction Heat Transfer Energy [J] !Hourly
482,1,ROOM_BD8241A1..FACE3,Surface Outside Face Solar Radiation Heat Gain Energy [J] !Hourly
483,1,ROOM_BD8241A1..FACE3,Surface Average Face Conduction Heat Transfer Energy [J] !Hourly
484,1,ROOM_BD8241A1..FACE4,Surface Outside Face Solar Radiation Heat Gain Energy [J] !Hourly
485,1,ROOM_BD8241A1..FACE4,Surface Average Face Conduction Heat Transfer Energy [J] !Hourly
486,1,ROOM_BD8241A1..FACE0,Surface Average Face Conduction Heat Transfer Energy [J] !Hourly
487,1,ROOM_BD8241A1..FACE5,Surface Average Face Conduction Heat Transfer Energy [J] !Hourly
488,1,ROOM_BE8AAB70..FACE1,Surface Outside Face Solar Radiation Heat Gain Energy [J] !Hourly
489,1,ROOM_BE8AAB70..FACE1,Surface Average Face Conduction Heat Transfer Energy [J] !Hourly
490,1,ROOM_BE8AAB70..FACE2,Surface Outside Face Solar Radiation Heat Gain Energy [J] !Hourly
491,1,ROOM_BE8AAB70..FACE2,Surface Average Face Conduction Heat Transfer Energy [J] !Hourly
492,1,ROOM_BE8AAB70..FACE3,Surface Outside Face Solar Radiation Heat Gain Energy [J] !Hourly
493,1,ROOM_BE8AAB70..FACE3,Surface Average Face Conduction Heat Transfer Energy [J] !Hourly
494,1,ROOM_BE8AAB70..FACE4,Surface Average Face Conduction Heat Transfer Energy [J] !Hourly
495,1,ROOM_BE8AAB70..FACE5,Surface Outside Face Solar Radiation Heat Gain Energy [J] !Hourly
496,1,ROOM_BE8AAB70..FACE5,Surface Average Face Conduction Heat Transfer Energy [J] !Hourly
497,1,ROOM_BE8AAB70..FACE0,Surface Average Face Conduction Heat Transfer Energy [J] !Hourly
498,1,ROOM_BE8AAB70..FACE6,Surface Average Face Conduction Heat Transfer Energy [J] !Hourly
499,1,ROOM_C3E48042..FACE1,Surface Average Face Conduction Heat Transfer Energy [J] !Hourly
500,1,ROOM_C3E48042..FACE2,Surface Outside Face Solar Radiation Heat Gain Energy [J] !Hourly
501,1,ROOM_C3E48042..FACE2,Surface Average Face Conduction Heat Transfer Energy [J] !Hourly
502,1,ROOM_C3E48042..FACE3,Surface Average Face Conduction Heat Transfer Energy [J] !Hourly
503,1,ROOM_C3E48042..FACE4,Surface Average Face Conduction Heat Transfer Energy [J] !Hourly
504,1,ROOM_C3E48042..FACE0,Surface Average Face Conduction Heat Transfer Energy [J] !Hourly
505,1,ROOM_C3E48042..FACE5,Surface Average Face Conduction Heat Transfer Energy [J] !Hourly
506,1,ROOM_DDA9C354..FACE1,Surface Average Face Conduction Heat Transfer Energy [J] !Hourly
507,1,ROOM_DDA9C354..FACE2,Surface Outside Face Solar Radiation Heat Gain Energy [J] !Hourly
508,1,ROOM_DDA9C354..FACE2,Surface Average Face Conduction Heat Transfer Energy [J] !Hourly
509,1,ROOM_DDA9C354..FACE3,Surface Outside Face Solar Radiation Heat Gain Energy [J] !Hourly
510,1,ROOM_DDA9C354..FACE3,Surface Average Face Conduction Heat Transfer Energy [J] !Hourly
511,1,ROOM_DDA9C354..FACE4,Surface Average Face Conduction Heat Transfer Energy [J] !Hourly
512,1,ROOM_DDA9C354..FACE5,Surface Average Face Conduction Heat Transfer Energy [J] !Hourly
513,1,ROOM_DDA9C354..FACE0,Surface Average Face Conduction Heat Transfer Energy [J] !Hourly
514,1,ROOM_DDA9C354..FACE6,Surface Average Face Conduction Heat Transfer Energy [J] !Hourly
515,1,ROOM_17F57B42,Zone Infiltration Total Heat Loss Energy [J] !Hourly
516,1,ROOM_17F57B42,Zone Infiltration Total Heat Gain Energy [J] !Hourly
517,1,ROOM_8D305412,Zone Infiltration Total Heat Loss Energy [J] !Hourly
518,1,ROOM_8D305412,Zone Infiltration Total Heat Gain Energy [J] !Hourly
519,1,ROOM_A4C076D7,Zone Infiltration Total Heat Loss Energy [J] !Hourly
520,1,ROOM_A4C076D7,Zone Infiltration Total Heat Gain Energy [J] !Hourly
521,1,ROOM_BB07A4B1,Zone Infiltration Total Heat Loss Energy [J] !Hourly
522,1,ROOM_BB07A4B1,Zone Infiltration Total Heat Gain Energy [J] !Hourly
523,1,ROOM_BD8241A1,Zone Infiltration Total Heat Loss Energy [J] !Hourly
524,1,ROOM_BD8241A1,Zone Infiltration Total Heat Gain Energy [J] !Hourly
525,1,ROOM_BE8AAB70,Zone Infiltration Total Heat Loss Energy [J] !Hourly
526,1,ROOM_BE8AAB70,Zone Infiltration Total Heat Gain Energy [J] !Hourly
527,1,ROOM_C3E48042,Zone Infiltration Total Heat Loss Energy [J] !Hourly
528,1,ROOM_C3E48042,Zone Infiltration Total Heat Gain Energy [J] !Hourly
529,1,ROOM_DDA9C354,Zone Infiltration Total Heat Loss Energy [J] !Hourly
530,1,ROOM_DDA9C354,Zone Infiltration Total Heat Gain Energy [J] !Hourly
1054,1,ROOM_17F57B42 IDEAL LOADS AIR SYSTEM,Zone Ideal Loads Supply Air Total Heating Energy [J] !Hourly
1103,1,ROOM_17F57B42 IDEAL LOADS AIR SYSTEM,Zone Ideal Loads Supply Air Total Cooling Energy [J] !Hourly
1152,1,ROOM_17F57B42 IDEAL LOADS AIR SYSTEM,Zone Ideal Loads Zone Total Heating Energy [J] !Hourly
1153,1,ROOM_17F57B42 IDEAL LOADS AIR SYSTEM,Zone Ideal Loads Zone Total Cooling Energy [J] !Hourly
1154,1,ROOM_8D305412 IDEAL LOADS AIR SYSTEM,Zone Ideal Loads Supply Air Total Heating Energy [J] !Hourly
1155,1,ROOM_8D305412 IDEAL LOADS AIR SYSTEM,Zone Ideal Loads Supply Air Total Cooling Energy [J] !Hourly
1156,1,ROOM_8D305412 IDEAL LOADS AIR SYSTEM,Zone Ideal Loads Zone Total Heating Energy [J] !Hourly
1157,1,ROOM_8D305412 IDEAL LOADS AIR SYSTEM,Zone Ideal Loads Zone Total Cooling Energy [J] !Hourly
1158,1,ROOM_A4C076D7 IDEAL LOADS AIR SYSTEM,Zone Ideal Loads Supply Air Total Heating Energy [J] !Hourly
1159,1,ROOM_A4C076D7 IDEAL LOADS AIR SYSTEM,Zone Ideal Loads Supply Air Total Cooling Energy [J] !Hourly
1160,1,ROOM_A4C076D7 IDEAL LOADS AIR SYSTEM,Zone Ideal Loads Zone Total Heating Energy [J] !Hourly
1161,1,ROOM_A4C076D7 IDEAL LOADS AIR SYSTEM,Zone Ideal Loads Zone Total Cooling Energy [J] !Hourly
1162,1,ROOM_BB07A4B1 IDEAL LOADS AIR SYSTEM,Zone Ideal Loads Supply Air Total Heating Energy [J] !Hourly
1163,1,ROOM_BB07A4B1 IDEAL LOADS AIR SYSTEM,Zone Ideal Loads Supply Air Total Cooling Energy [J] !Hourly
1164,1,ROOM_BB07A4B1 IDEAL LOADS AIR SYSTEM,Zone Ideal Loads Zone Total Heating Energy [J] !Hourly
1165,1,ROOM_BB07A4B1 IDEAL LOADS AIR SYSTEM,Zone Ideal Loads Zone Total Cooling Energy [J] !Hourly
1166,1,ROOM_BD8241A1 IDEAL LOADS AIR SYSTEM,Zone Ideal Loads Supply Air Total Heating Energy [J] !Hourly
1167,1,ROOM_BD8241A1 IDEAL LOADS AIR SYSTEM,Zone Ideal Loads Supply Air Total Cooling Energy [J] !Hourly
1168,1,ROOM_BD8241A1 IDEAL LOADS AIR SYSTEM,Zone Ideal Loads Zone Total Heating Energy [J] !Hourly
1169,1,ROOM_BD8241A1 IDEAL LOADS AIR SYSTEM,Zone Ideal Loads Zone Total Cooling Energy [J] !Hourly
1170,1,ROOM_BE8AAB70 IDEAL LOADS AIR SYSTEM,Zone Ideal Loads Supply Air Total Heating Energy [J] !Hourly
1171,1,ROOM_BE8AAB70 IDEAL LOADS AIR SYSTEM,Zone Ideal Loads Supply Air Total Cooling Energy [J] !Hourly
1172,1,ROOM_BE8AAB70 IDEAL LOADS AIR SYSTEM,Zone Ideal Loads Zone Total Heating Energy [J] !Hourly
1173,1,ROOM_BE8AAB70 IDEAL LOADS AIR SYSTEM,Zone Ideal Loads Zone Total Cooling Energy [J] !Hourly
1174,1,ROOM_C3E48042 IDEAL LOADS AIR SYSTEM,Zone Ideal Loads Supply Air Total Heating Energy [J] !Hourly
1175,1,ROOM_C3E48042 IDEAL LOADS AIR SYSTEM,Zone Ideal Loads Supply Air Total Cooling Energy [J] !Hourly
1176,1,ROOM_C3E48042 IDEAL LOADS AIR SYSTEM,Zone Ideal Loads Zone Total Heating Energy [J] !Hourly
1177,1,ROOM_C3E48042 IDEAL LOADS AIR SYSTEM,Zone Ideal Loads Zone Total Cooling Energy [J] !Hourly
1178,1,ROOM_DDA9C354 IDEAL LOADS AIR SYSTEM,Zone Ideal Loads Supply Air Total Heating Energy [J] !Hourly
1179,1,ROOM_DDA9C354 IDEAL LOADS AIR SYSTEM,Zone Ideal Loads Supply Air Total Cooling Energy [J] !Hourly
1180,1,ROOM_DDA9C354 IDEAL LOADS AIR SYSTEM,Zone Ideal Loads Zone Total Heating Energy [J] !Hourly
1181,1,ROOM_DDA9C354 IDEAL LOADS AIR SYSTEM,Zone Ideal Loads Zone Total Cooling Energy [J] !Hourly
End of Data Dictionary
1,RUN PERIOD 1,  42.37, -71.02,  -5.00,   6.00
2,1, 1, 1, 0, 1, 0.00,60.00,Sunday
7,0.0
8,0.0
9,0.0
10,0.0
11,0.0
12,0.0
13,0.0
14,0.0
391,0.0
392,0.0
393,0.0
394,0.0
395,0.0
396,0.0
397,0.0
398,0.0
399,0.0
400,261922.55109344665
401,0.0
402,541998.3776833724
403,0.0
404,263385.1274077074
405,0.0
406,491177.83505977518
407,0.0
408,256221.60042260073
409,0.0
410,235525.4759730431
411,0.0
412,142537.11268767608
413,0.0
414,96897.08060084624
415,0.0
416,69011.43065296114
417,0.0
418,214538.93152687906
419,0.0
420,146497.79595107694
421,0.0
422,31631.455032580943
423,0.0
424,367481.87189173736
425,0.0
426,33330.41423827252
427,0.0
428,367057.5406504108
429,0.0
430,231875.42840560608
431,0.0
432,273517.379188154
433,0.0
434,288592.00947016858
435,0.0
436,108362.78438216083
437,0.0
438,236164.48589754967
439,0.0
440,237267.90888954808
441,0.0
442,-255914.46006468158
443,0.0
444,-1042195.6056770699
445,0.0
446,-186573.656959944
447,0.0
448,-197243.33940855543
449,447496.61389589149
450,57302.157157887705
451,0.0
452,-107316.38754174963
453,5843.703851386276
454,-40.90649816777049
455,0.0
456,-115425.14722919399
457,0.0
458,-138687.87368953633
459,44568.703135140975
460,2028.7763092531409
461,0.0
462,-51228.476411814336
463,-1211.2999580959464
464,11363.019094940497
465,3004.0290033670087
466,0.0
467,-31351.560575486517
468,2367.1100989535309
469,100.07894258074318
470,0.0
471,-87504.34966276604
472,0.0
473,-99917.29749415496
474,15221.918486424143
475,-11200.0790560495
476,19054.51901826344
477,1046.5007377601706
478,0.0
479,-37703.974949772775
480,0.0
481,-243715.30235620697
482,0.0
483,-16366.591414127175
484,0.0
485,-329953.027463018
486,72259.0804934462
487,2712.8635551293066
488,0.0
489,-224878.19152482318
490,0.0
491,-336719.4956472349
492,0.0
493,-51315.813002307696
494,3436.666234564482
495,0.0
496,-128801.77765176627
497,106081.31937548705
498,8561.527936055563
499,-19448.942706131682
500,0.0
501,-72976.47760229637
502,-13740.029034908162
503,-14365.267877492162
504,15333.240016035923
505,1726.2024656160973
506,10449.287905400612
507,0.0
508,-161542.1831793233
509,0.0
510,-104591.56092000636
511,-7939.275313431026
512,-5286.418658223169
513,44235.36011739525
514,3531.485297262827
515,1037115.786062029
516,0.0
517,459972.4530381549
518,0.0
519,115543.38640918854
520,0.0
521,251591.16966865073
522,0.0
523,583370.0042967718
524,0.0
525,578337.6203144738
526,0.0
527,68033.68097692446
528,0.0
529,308391.8830154619
530,0.0
1054,3140694.8242474046
1103,0.0
1152,2162853.6601075849
1153,0.0
1154,1665034.9048498022
1155,0.0
1156,1358050.881137086
1157,0.0
1158,386402.734116698
1159,0.0
1160,351675.3845728095
1161,0.0
1162,1003035.8087732464
1163,0.0
1164,755821.1108328942
1165,0.0
1166,1802356.8912173699
1167,0.0
1168,1698323.673365018
1169,0.0
1170,2030990.6985565178
1171,0.0
1172,1540108.0084570414
1173,0.0
1174,439616.57733482387
1175,0.0
1176,263546.3496880013
1177,0.0
1178,1308195.6929521666
1179,0.0
1180,912861.0929688849
1181,0.0
2,1, 1, 1, 0, 2, 0.00,60.00,Sunday
7,0.0
8,0.0
9,0.0
10,0.0
11,0.0
12,0.0
13,0.0
14,0.0
391,0.0
392,0.0
393,0.0
394,0.0
395,0.0
396,0.0
397,0.0
398,0.0
399,0.0
400,202662.93072074397
401,0.0
402,419715.56258396219
403,0.0
404,203956.8965525367
405,0.0
406,385921.2498102851
407,0.0
408,200243.77887555579
409,0.0
410,182530.86710906004
411,0.0
412,109696.64754261778
413,0.0
414,75668.10103779409
415,0.0
416,53424.175359730696
417,0.0
418,168565.52521659956
419,0.0
420,113316.71176729936
421,0.0
422,24434.86890251184
423,0.0
424,281587.3015024191
425,0.0
426,25510.381710189424
427,0.0
428,281032.41585952826
429,0.0
430,178609.3349454409
431,0.0
432,212947.1546894863
433,0.0
434,222730.64111155348
435,0.0
436,84215.5780308982
437,0.0
438,182748.56768248039
439,0.0
440,183807.94544936744
441,0.0
442,18372.63212061659
443,0.0
444,-424790.4678585712
445,0.0
446,83347.62297526667
447,0.0
448,272782.9577764634
449,366243.38424508608
450,38980.41750906974
451,0.0
452,154650.5791332993
453,5611.87740796744
454,5.778881969885163
455,0.0
456,130196.03785204777
457,0.0
458,16634.2167926252
459,26262.004677113764
460,-1464.176782862159
461,0.0
462,46876.31575187209
463,-1328.1523391734386
464,10233.963248865362
465,2709.815170760113
466,0.0
467,38304.18169284809
468,881.7887912118612
469,-263.207546399205
470,0.0
471,123498.81725968627
472,0.0
473,51991.299525035225
474,13751.946457321712
475,-10441.586252654422
476,9797.9236157973
477,-963.1249450888531
478,0.0
479,-639.0451923143749
480,0.0
481,164952.43630771628
482,0.0
483,20145.94020305571
484,0.0
485,84862.14200525524
486,54510.583127713384
487,111.02497810010179
488,0.0
489,24090.063269102546
490,0.0
491,-33512.15524466231
492,0.0
493,34183.481211615086
494,3553.127445086777
495,0.0
496,165235.65191835213
497,75944.74592202512
498,2928.1301840220619
499,-18533.712847840565
500,0.0
501,35675.7790726432
502,-13355.223357720903
503,-13310.88477470226
504,11065.762515509496
505,618.6728773582256
506,9290.769023984514
507,0.0
508,81891.15270227206
509,0.0
510,132691.9414054827
511,-7580.04337100617
512,-4740.212486277471
513,28338.834318592566
514,175.98893328827166
515,809935.8242862438
516,0.0
517,362061.1982921387
518,0.0
519,92476.85706840856
520,0.0
521,195962.09845364764
522,0.0
523,469989.80517751359
524,0.0
525,452823.3576944544
526,0.0
527,51489.53780959268
528,0.0
529,238244.791382666
530,0.0
1054,2570295.465725295
1103,0.0
1152,1794379.1795662842
1153,0.0
1154,1400708.0221929327
1155,0.0
1156,1154783.302934866
1157,0.0
1158,326088.8324269753
1159,0.0
1160,297623.3303952575
1161,0.0
1162,840359.9007329824
1163,0.0
1164,644837.6919821629
1165,0.0
1166,1515052.2229496618
1167,0.0
1168,1428787.524332634
1169,0.0
1170,1697079.6701571029
1171,0.0
1172,1306429.0702661798
1173,0.0
1174,369115.1386050983
1175,0.0
1176,234242.60331226886
1177,0.0
1178,1088829.7177874873
1179,0.0
1180,779050.2335235584
1181,0.0
2,1, 1, 1, 0, 3, 0.00,60.00,Sunday
7,0.0
8,0.0
9,0.0
10,0.0
11,0.0
12,0.0
13,0.0
14,0.0
391,0.0
392,0.0
393,0.0
394,0.0
395,0.0
396,0.0
397,0.0
398,0.0
399,0.0
400,206808.28986222839
401,0.0
402,428249.7007035408
403,0.0
404,208106.80738560897
405,0.0
406,394492.6876814575
407,0.0
408,206255.02474284773
409,0.0
410,187844.3645128656
411,0.0
412,112711.53030452604
413,0.0
414,77950.7045310333
415,0.0
416,54962.44065278388
417,0.0
418,173581.1984297537
419,0.0
420,116404.20056989879
421,0.0
422,25161.806237700817
423,0.0
424,289462.9556640881
425,0.0
426,26241.50033727359
427,0.0
428,288974.3168455102
429,0.0
430,183171.5391324676
431,0.0
432,218625.70301273422
433,0.0
434,228442.94522515549
435,0.0
436,86464.98645128108
437,0.0
438,187592.92809877208
439,0.0
440,188740.26317770594
441,0.0
442,-78889.89620772773
443,0.0
444,-591664.534407068
445,0.0
446,-19380.263773210707
447,0.0
448,69051.51404409319
449,337936.83220730317
450,36931.1487829606
451,0.0
452,42352.663024569716
453,8287.85260315461
454,701.8794905492366
455,0.0
456,28419.792167016647
457,0.0
458,-38783.51359777423
459,23729.967043050583
460,-458.29496986501069
461,0.0
462,6170.885760894228
463,-825.4845595664333
464,11684.084052005031
465,3603.4500026400639
466,0.0
467,9497.014608110641
468,683.2124471028402
469,-203.41944978604574
470,0.0
471,31497.78295848375
472,0.0
473,-7040.993326161692
474,16300.831963951288
475,-8268.064253240189
476,8702.734726249164
477,-515.2844855399878
478,0.0
479,-13063.211622187062
480,0.0
481,10452.528149826305
482,0.0
483,5757.645824132779
484,0.0
485,-63300.34226495228
486,47084.85699660634
487,400.2939700151213
488,0.0
489,-65063.66335805785
490,0.0
491,-137026.65964954618
492,0.0
493,909.375707537808
494,6731.923344574459
495,0.0
496,43914.22798816338
497,69357.15012821421
498,3922.52292757839
499,-16595.62193854862
500,0.0
501,-7183.635171229673
502,-11778.727792426915
503,-12086.276815854551
504,9195.227316025012
505,390.05025563569589
506,11886.417156616282
507,0.0
508,-12840.68113322564
509,0.0
510,33655.93685101928
511,-5495.010485103074
512,-3705.2681886912589
513,25456.850405889243
514,678.5418908186819
515,889392.965567775
516,0.0
517,395342.0790751403
518,0.0
519,99179.04575397869
520,0.0
521,215597.78933698077
522,0.0
523,498149.6637804869
524,0.0
525,496501.2117747775
526,0.0
527,57311.549827977935
528,0.0
529,263229.61674430736
530,0.0
1054,2709225.036870541
1103,0.0
1152,1842176.9513779209
1153,0.0
1154,1424341.6847301045
1155,0.0
1156,1150940.2849677634
1157,0.0
1158,327702.71937104317
1159,0.0
1160,296627.9191041374
1161,0.0
1162,852325.1973562392
1163,0.0
1164,633451.2534597551
1165,0.0
1166,1540950.2545597777
1167,0.0
1168,1448006.8142303997
1169,0.0
1170,1744748.0601391197
1171,0.0
1172,1308753.131010927
1173,0.0
1174,373269.7775936342
1175,0.0
1176,220975.87622403814
1177,0.0
1178,1110394.9626077123
1179,0.0
1180,762426.1181558111
1181,0.0
2,1, 1, 1, 0, 4, 0.00,60.00,Sunday
7,0.0
8,0.0
9,0.0
10,0.0
11,0.0
12,0.0
13,0.0
14,0.0
391,0.0
392,0.0
393,0.0
394,0.0
395,0.0
396,0.0
397,0.0
398,0.0
399,0.0
400,208717.99588992768
401,0.0
402,432178.6203891798
403,0.0
404,209924.67313459415
405,0.0
406,397873.1561209592
407,0.0
408,209557.40665546229
409,0.0
410,190733.06853753647
411,0.0
412,114436.38919771422
413,0.0
414,79255.42374143956
415,0.0
416,55837.023415219635
417,0.0
418,176430.6020299663
419,0.0
420,118188.23519223006
421,0.0
422,25512.258758454598
423,0.0
424,293222.58130858247
425,0.0
426,26595.213272941197
427,0.0
428,292876.7780724331
429,0.0
430,185695.13577049727
431,0.0
432,221695.26347613085
433,0.0
434,231513.16919898627
435,0.0
436,87775.61098946218
437,0.0
438,190363.1554479206
439,0.0
440,191552.68912711644
441,0.0
442,-125116.10104581612
443,0.0
444,-649199.6783226411
445,0.0
446,-71638.55545525706
447,0.0
448,-37542.1307140303
449,311011.97168630748
450,34750.99182952825
451,0.0
452,-16010.740832780088
453,8899.532682624253
454,900.0473223103388
455,0.0
456,-24893.001949321664
457,0.0
458,-65321.363616779825
459,21990.398383751475
460,363.2444520299822
461,0.0
462,-14551.355604945747
463,-733.4971304040548
464,12073.323505148188
465,3747.579392323723
466,0.0
467,-5704.557129766097
468,668.2244012027371
469,-112.23348768036188
470,0.0
471,-15938.051301795971
472,0.0
473,-36990.97073408555
474,16980.99789208243
475,-8020.8454357802
476,8227.164635755089
477,-59.07762645049269
478,0.0
479,-18818.19115687747
480,0.0
481,-70111.09130255539
482,0.0
483,-2001.1956041849754
484,0.0
485,-136529.99934287786
486,41244.21950622186
487,750.3999674352616
488,0.0
489,-107606.10092643187
490,0.0
491,-183072.11953569225
492,0.0
493,-16327.79935647975
494,7573.854748469715
495,0.0
496,-20688.081204051512
497,63865.85953906852
498,4641.341916122202
499,-16104.581763587972
500,0.0
501,-28679.996315320357
502,-11505.026370641588
503,-11765.363283911754
504,8172.533635271344
505,413.98682286612708
506,12718.468847700004
507,0.0
508,-60821.26532739487
509,0.0
510,-18785.145315105692
511,-5534.15279316442
512,-3466.413694091082
513,23545.93815888908
514,1204.1631571460394
515,921551.9147606648
516,0.0
517,408124.9894131854
518,0.0
519,101572.24588584455
520,0.0
521,223679.2913517268
522,0.0
523,508566.77059690046
524,0.0
525,513857.69883403656
526,0.0
527,60204.7160299511
528,0.0
529,274121.51329257708
530,0.0
1054,2840026.00932487
1103,0.0
1152,1937879.140073477
1153,0.0
1154,1450296.6605235113
1155,0.0
1156,1167019.2872541992
1157,0.0
1158,331815.9691608156
1159,0.0
1160,299924.7125076842
1161,0.0
1162,865976.6589072456
1163,0.0
1164,637915.504962121
1165,0.0
1166,1577449.7984830733
1167,0.0
1168,1482453.7010516904
1169,0.0
1170,1791341.7115652504
1171,0.0
1172,1338287.9462542555
1173,0.0
1174,379539.1324394107
1175,0.0
1176,218730.5335775498
1177,0.0
1178,1132631.3801256768
1179,0.0
1180,768567.1319703308
1181,0.0
2,1, 1, 1, 0, 5, 0.00,60.00,Sunday
7,0.0
8,0.0
9,0.0
10,0.0
11,0.0
12,0.0
13,0.0
14,0.0
391,0.0
392,0.0
393,0.0
394,0.0
395,0.0
396,0.0
397,0.0
398,0.0
399,0.0
400,207431.4404017463
401,0.0
402,429531.47245398719
403,0.0
404,208558.67191218327
405,0.0
406,394638.2653385705
407,0.0
408,209016.51686155174
409,0.0
410,190219.3037652709
411,0.0
412,114244.25485001326
413,0.0
414,79134.03347398559
415,0.0
416,55753.30185730851
417,0.0
418,176070.55999624579
419,0.0
420,117999.8033382982
421,0.0
422,25415.344103422896
423,0.0
424,292060.7217075396
425,0.0
426,26498.334240686338
427,0.0
428,291834.29367124158
429,0.0
430,185167.52573061246
431,0.0
432,220952.0657255344
433,0.0
434,230738.00883929185
435,0.0
436,87627.12664828972
437,0.0
438,189976.76528523473
439,0.0
440,191140.17910456667
441,0.0
442,-136741.10092377026
443,0.0
444,-637157.7019048616
445,0.0
446,-88500.75639867835
447,0.0
448,-74838.606549196
449,282010.42516406907
450,31507.01884160508
451,0.0