Program Version,EnergyPlus, Version 9.3.0-baff08990c, YMD=2021.04.24 20:36
1,5,Environment Title[],Latitude[deg],Longitude[deg],Time Zone[],Elevation[m]
2,8,Day of Simulation[],Month[],Day of Month[],DST Indicator[1=yes 0=no],Hour[],StartMinute[],EndMinute[],DayType
3,5,Cumulative Day of Simulation[],Month[],Day of Month[],DST Indicator[1=yes 0=no],DayType  ! When Daily Report Variables Requested
4,2,Cumulative Days of Simulation[],Month[]  ! When Monthly Report Variables Requested
5,1,Cumulative Days of Simulation[] ! When Run Period Report Variables Requested
6,1,Calendar Year of Simulation[] ! When Annual Report Variables Requested
7,1,ROOM_2A9B9DE5,Zone People Total Heating Energy [J] !Hourly
8,1,ROOM_50E9128F,Zone People Total Heating Energy [J] !Hourly
9,1,ROOM_5D55E4D3,Zone People Total Heating Energy [J] !Hourly
10,1,ROOM_EA8D04A9,Zone People Total Heating Energy [J] !Hourly
11,1,ROOM_FC21A0FA,Zone People Total Heating Energy [J] !Hourly
12,1,ROOM_FF04F170,Zone People Total Heating Energy [J] !Hourly
313,1,ROOM_2A9B9DE5,Zone Windows Total Transmitted Solar Radiation Energy [J] !Hourly
314,1,ROOM_50E9128F,Zone Windows Total Transmitted Solar Radiation Energy [J] !Hourly
315,1,ROOM_5D55E4D3,Zone Windows Total Transmitted Solar Radiation Energy [J] !Hourly
316,1,ROOM_EA8D04A9,Zone Windows Total Transmitted Solar Radiation Energy [J] !Hourly
317,1,ROOM_FC21A0FA,Zone Windows Total Transmitted Solar Radiation Energy [J] !Hourly
318,1,ROOM_FF04F170,Zone Windows Total Transmitted Solar Radiation Energy [J] !Hourly
319,1,ROOM_2A9B9DE5..FACE1_GLZ1,Surface Window Heat Gain Energy [J] !Hourly
320,1,ROOM_2A9B9DE5..FACE1_GLZ1,Surface Window Heat Loss Energy [J] !Hourly
321,1,ROOM_2A9B9DE5..FACE6_GLZ1,Surface Window Heat Gain Energy [J] !Hourly
322,1,ROOM_2A9B9DE5..FACE6_GLZ1,Surface Window Heat Loss Energy [J] !Hourly
323,1,ROOM_50E9128F..FACE3_GLZ1,Surface Window Heat Gain Energy [J] !Hourly
324,1,ROOM_50E9128F..FACE3_GLZ1,Surface Window Heat Loss Energy [J] !Hourly
325,1,ROOM_5D55E4D3..FACE3_GLZ1,Surface Window Heat Gain Energy [J] !Hourly
326,1,ROOM_5D55E4D3..FACE3_GLZ1,Surface Window Heat Loss Energy [J] !Hourly
327,1,ROOM_5D55E4D3..FACE4_GLZ1,Surface Window Heat Gain Energy [J] !Hourly
328,1,ROOM_5D55E4D3..FACE4_GLZ1,Surface Window Heat Loss Energy [J] !Hourly
329,1,ROOM_5D55E4D3..FACE5_GLZ1,Surface Window Heat Gain Energy [J] !Hourly
330,1,ROOM_5D55E4D3..FACE5_GLZ1,Surface Window Heat Loss Energy [J] !Hourly
331,1,ROOM_EA8D04A9..FACE1_GLZ1,Surface Window Heat Gain Energy [J] !Hourly
332,1,ROOM_EA8D04A9..FACE1_GLZ1,Surface Window Heat Loss Energy [J] !Hourly
333,1,ROOM_FC21A0FA..FACE3_GLZ1,Surface Window Heat Gain Energy [J] !Hourly
334,1,ROOM_FC21A0FA..FACE3_GLZ1,Surface Window Heat Loss Energy [J] !Hourly
335,1,ROOM_FC21A0FA..FACE4_GLZ1,Surface Window Heat Gain Energy [J] !Hourly
336,1,ROOM_FC21A0FA..FACE4_GLZ1,Surface Window Heat Loss Energy [J] !Hourly
337,1,ROOM_FC21A0FA..FACE5_GLZ1,Surface Window Heat Gain Energy [J] !Hourly
338,1,ROOM_FC21A0FA..FACE5_GLZ1,Surface Window Heat Loss Energy [J] !Hourly
339,1,ROOM_FF04F170..FACE4_GLZ1,Surface Window Heat Gain Energy [J] !Hourly
340,1,ROOM_FF04F170..FACE4_GLZ1,Surface Window Heat Loss Energy [J] !Hourly
341,1,ROOM_FF04F170..FACE5_GLZ1,Surface Window Heat Gain Energy [J] !Hourly
342,1,ROOM_FF04F170..FACE5_GLZ1,Surface Window Heat Loss Energy [J] !Hourly
343,1,ROOM_2A9B9DE5..FACE1,Surface Outside Face Solar Radiation Heat Gain Energy [J] !Hourly
344,1,ROOM_2A9B9DE5..FACE1,Surface Average Face Conduction Heat Transfer Energy [J] !Hourly
345,1,ROOM_2A9B9DE5..FACE2,Surface Average Face Conduction Heat Transfer Energy [J] !Hourly
346,1,ROOM_2A9B9DE5..FACE3,Surface Average Face Conduction Heat Transfer Energy [J] !Hourly
347,1,ROOM_2A9B9DE5..FACE4,Surface Average Face Conduction Heat Transfer Energy [J] !Hourly
348,1,ROOM_2A9B9DE5..FACE5,Surface Average Face Conduction Heat Transfer Energy [J] !Hourly
349,1,ROOM_2A9B9DE5..FACE6,Surface Outside Face Solar Radiation Heat Gain Energy [J] !Hourly
350,1,ROOM_2A9B9DE5..FACE6,Surface Average Face Conduction Heat Transfer Energy [J] !Hourly
351,1,ROOM_2A9B9DE5..FACE0,Surface Average Face Conduction Heat Transfer Energy [J] !Hourly
352,1,ROOM_2A9B9DE5..FACE7,Surface Average Face Conduction Heat Transfer Energy [J] !Hourly
353,1,ROOM_50E9128F..FACE1,Surface Average Face Conduction Heat Transfer Energy [J] !Hourly
354,1,ROOM_50E9128F..FACE2,Surface Average Face Conduction Heat Transfer Energy [J] !Hourly
355,1,ROOM_50E9128F..FACE3,Surface Outside Face Solar Radiation Heat Gain Energy [J] !Hourly
356,1,ROOM_50E9128F..FACE3,Surface Average Face Conduction Heat Transfer Energy [J] !Hourly
357,1,ROOM_50E9128F..FACE4,Surface Average Face Conduction Heat Transfer Energy [J] !Hourly
358,1,ROOM_50E9128F..FACE0,Surface Average Face Conduction Heat Transfer Energy [J] !Hourly
359,1,ROOM_50E9128F..FACE5,Surface Average Face Conduction Heat Transfer Energy [J] !Hourly
360,1,ROOM_5D55E4D3..FACE1,Surface Average Face Conduction Heat Transfer Energy [J] !Hourly
361,1,ROOM_5D55E4D3..FACE2,Surface Average Face Conduction Heat Transfer Energy [J] !Hourly
362,1,ROOM_5D55E4D3..FACE3,Surface Outside Face Solar Radiation Heat Gain Energy [J] !Hourly
363,1,ROOM_5D55E4D3..FACE3,Surface Average Face Conduction Heat Transfer Energy [J] !Hourly
364,1,ROOM_5D55E4D3..FACE4,Surface Outside Face Solar Radiation Heat Gain Energy [J] !Hourly
365,1,ROOM_5D55E4D3..FACE4,Surface Average Face Conduction Heat Transfer Energy [J] !Hourly
366,1,ROOM_5D55E4D3..FACE5,Surface Outside Face Solar Radiation Heat Gain Energy [J] !Hourly
367,1,ROOM_5D55E4D3..FACE5,Surface Average Face Conduction Heat Transfer Energy [J] !Hourly
368,1,ROOM_5D55E4D3..FACE0,Surface Average Face Conduction Heat Transfer Energy [J] !Hourly
369,1,ROOM_5D55E4D3..FACE6,Surface Average Face Conduction Heat Transfer Energy [J] !Hourly
370,1,ROOM_EA8D04A9..FACE1,Surface Outside Face Solar Radiation Heat Gain Energy [J] !Hourly
371,1,ROOM_EA8D04A9..FACE1,Surface Average Face Conduction Heat Transfer Energy [J] !Hourly
372,1,ROOM_EA8D04A9..FACE2,Surface Average Face Conduction Heat Transfer Energy [J] !Hourly
373,1,ROOM_EA8D04A9..FACE3,Surface Average Face Conduction Heat Transfer Energy [J] !Hourly
374,1,ROOM_EA8D04A9..FACE4,Surface Average Face Conduction Heat Transfer Energy [J] !Hourly
375,1,ROOM_EA8D04A9..FACE0,Surface Average Face Conduction Heat Transfer Energy [J] !Hourly
376,1,ROOM_EA8D04A9..FACE5,Surface Average Face Conduction Heat Transfer Energy [J] !Hourly
377,1,ROOM_FC21A0FA..FACE1,Surface Average Face Conduction Heat Transfer Energy [J] !Hourly
378,1,ROOM_FC21A0FA..FACE2,Surface Outside Face Solar Radiation Heat Gain Energy [J] !Hourly
379,1,ROOM_FC21A0FA..FACE2,Surface Average Face Conduction Heat Transfer Energy [J] !Hourly
380,1,ROOM_FC21A0FA..FACE3,Surface Outside Face Solar Radiation Heat Gain Energy [J] !Hourly
381,1,ROOM_FC21A0FA..FACE3,Surface Average Face Conduction Heat Transfer Energy [J] !Hourly
382,1,ROOM_FC21A0FA..FACE4,Surface Outside Face Solar Radiation Heat Gain Energy [J] !Hourly
383,1,ROOM_FC21A0FA..FACE4,Surface Average Face Conduction Heat Transfer Energy [J] !Hourly
384,1,ROOM_FC21A0FA..FACE5,Surface Outside Face Solar Radiation Heat Gain Energy [J] !Hourly
385,1,ROOM_FC21A0FA..FACE5,Surface Average Face Conduction Heat Transfer Energy [J] !Hourly
386,1,ROOM_FC21A0FA..FACE0,Surface Average Face Conduction Heat Transfer Energy [J] !Hourly
387,1,ROOM_FC21A0FA..FACE6,Surface Average Face Conduction Heat Transfer Energy [J] !Hourly
388,1,ROOM_FF04F170..FACE1,Surface Average Face Conduction Heat Transfer Energy [J] !Hourly
389,1,ROOM_FF04F170..FACE2,Surface Average Face Conduction Heat Transfer Energy [J] !Hourly
390,1,ROOM_FF04F170..FACE3,Surface Average Face Conduction Heat Transfer Energy [J] !Hourly
391,1,ROOM_FF04F170..FACE4,Surface Outside Face Solar Radiation Heat Gain Energy [J] !Hourly
392,1,ROOM_FF04F170..FACE4,Surface Average Face Conduction Heat Transfer Energy [J] !Hourly
393,1,ROOM_FF04F170..FACE5,Surface Outside Face Solar Radiation Heat Gain Energy [J] !Hourly
394,1,ROOM_FF04F170..FACE5,Surface Average Face Conduction Heat Transfer Energy [J] !Hourly
395,1,ROOM_FF04F170..FACE0,Surface Average Face Conduction Heat Transfer Energy [J] !Hourly
396,1,ROOM_FF04F170..FACE6,Surface Average Face Conduction Heat Transfer Energy [J] !Hourly
397,1,ROOM_2A9B9DE5,Zone Infiltration Total Heat Loss Energy [J] !Hourly
398,1,ROOM_2A9B9DE5,Zone Infiltration Total Heat Gain Energy [J] !Hourly
399,1,ROOM_50E9128F,Zone Infiltration Total Heat Loss Energy [J] !Hourly
400,1,ROOM_50E9128F,Zone Infiltration Total Heat Gain Energy [J] !Hourly
401,1,ROOM_5D55E4D3,Zone Infiltration Total Heat Loss Energy [J] !Hourly
402,1,ROOM_5D55E4D3,Zone Infiltration Total Heat Gain Energy [J] !Hourly
403,1,ROOM_EA8D04A9,Zone Infiltration Total Heat Loss Energy [J] !Hourly
404,1,ROOM_EA8D04A9,Zone Infiltration Total Heat Gain Energy [J] !Hourly
405,1,ROOM_FC21A0FA,Zone Infiltration Total Heat Loss Energy [J] !Hourly
406,1,ROOM_FC21A0FA,Zone Infiltration Total Heat Gain Energy [J] !Hourly
407,1,ROOM_FF04F170,Zone Infiltration Total Heat Loss Energy [J] !Hourly
408,1,ROOM_FF04F170,Zone Infiltration Total Heat Gain Energy [J] !Hourly
856,1,ROOM_2A9B9DE5 IDEAL LOADS AIR SYSTEM,Zone Ideal Loads Supply Air Total Heating Energy [J] !Hourly
905,1,ROOM_2A9B9DE5 IDEAL LOADS AIR SYSTEM,Zone Ideal Loads Supply Air Total Cooling Energy [J] !Hourly
954,1,ROOM_2A9B9DE5 IDEAL LOADS AIR SYSTEM,Zone Ideal Loads Zone Total Heating Energy [J] !Hourly
955,1,ROOM_2A9B9DE5 IDEAL LOADS AIR SYSTEM,Zone Ideal Loads Zone Total Cooling Energy [J] !Hourly
956,1,ROOM_50E9128F IDEAL LOADS AIR SYSTEM,Zone Ideal Loads Supply Air Total Heating Energy [J] !Hourly
957,1,ROOM_50E9128F IDEAL LOADS AIR SYSTEM,Zone Ideal Loads Supply Air Total Cooling Energy [J] !Hourly
958,1,ROOM_50E9128F IDEAL LOADS AIR SYSTEM,Zone Ideal Loads Zone Total Heating Energy [J] !Hourly
959,1,ROOM_50E9128F IDEAL LOADS AIR SYSTEM,Zone Ideal Loads Zone Total Cooling Energy [J] !Hourly
960,1,ROOM_5D55E4D3 IDEAL LOADS AIR SYSTEM,Zone Ideal Loads Supply Air Total Heating Energy [J] !Hourly
961,1,ROOM_5D55E4D3 IDEAL LOADS AIR SYSTEM,Zone Ideal Loads Supply Air Total Cooling Energy [J] !Hourly
962,1,ROOM_5D55E4D3 IDEAL LOADS AIR SYSTEM,Zone Ideal Loads Zone Total Heating Energy [J] !Hourly
963,1,ROOM_5D55E4D3 IDEAL LOADS AIR SYSTEM,Zone Ideal Loads Zone Total Cooling Energy [J] !Hourly
964,1,ROOM_EA8D04A9 IDEAL LOADS AIR SYSTEM,Zone Ideal Loads Supply Air Total Heating Energy [J] !Hourly
965,1,ROOM_EA8D04A9 IDEAL LOADS AIR SYSTEM,Zone Ideal Loads Supply Air Total Cooling Energy [J] !Hourly
966,1,ROOM_EA8D04A9 IDEAL LOADS AIR SYSTEM,Zone Ideal Loads Zone Total Heating Energy [J] !Hourly
967,1,ROOM_EA8D04A9 IDEAL LOADS AIR SYSTEM,Zone Ideal Loads Zone Total Cooling Energy [J] !Hourly
968,1,ROOM_FC21A0FA IDEAL LOADS AIR SYSTEM,Zone Ideal Loads Supply Air Total Heating Energy [J] !Hourly
969,1,ROOM_FC21A0FA IDEAL LOADS AIR SYSTEM,Zone Ideal Loads Supply Air Total Cooling Energy [J] !Hourly
970,1,ROOM_FC21A0FA IDEAL LOADS AIR SYSTEM,Zone Ideal Loads Zone Total Heating Energy [J] !Hourly
971,1,ROOM_FC21A0FA IDEAL LOADS AIR SYSTEM,Zone Ideal Loads Zone Total Cooling Energy [J] !Hourly
972,1,ROOM_FF04F170 IDEAL LOADS AIR SYSTEM,Zone Ideal Loads Supply Air Total Heating Energy [J] !Hourly
973,1,ROOM_FF04F170 IDEAL LOADS AIR SYSTEM,Zone Ideal Loads Supply Air Total Cooling Energy [J] !Hourly
974,1,ROOM_FF04F170 IDEAL LOADS AIR SYSTEM,Zone Ideal Loads Zone Total Heating Energy [J] !Hourly
975,1,ROOM_FF04F170 IDEAL LOADS AIR SYSTEM,Zone Ideal Loads Zone Total Cooling Energy [J] !Hourly
End of Data Dictionary
1,RUN PERIOD 1,  42.37, -71.02,  -5.00,   6.00
2,1, 1, 1, 0, 1, 0.00,60.00,Sunday
7,0.0
8,0.0
9,0.0
10,0.0
11,0.0
12,0.0
313,0.0
314,0.0
315,0.0
316,0.0
317,0.0
318,0.0
319,0.0
320,322217.3634720676
321,0.0
322,240303.82731717768
323,0.0
324,282222.23496645208
325,0.0
326,269685.8553891111
327,0.0
328,485880.7321426281
329,0.0
330,270137.7399330763
331,0.0
332,294337.86714179
333,0.0
334,82054.02311520968
335,0.0
336,123445.6379852936
337,0.0
338,50860.334680805536
339,0.0
340,173870.0837083783
341,0.0
342,243793.42689131556
343,0.0
344,-598624.0950528211
345,16023.048615915173
346,-13380.379954638416
347,-7842.554350303286
348,-28230.09087935681
349,0.0
350,-229975.6986402038
351,271388.86894504868
352,42132.17979070222
353,32484.300111026987
354,-6188.626551410472
355,0.0
356,-124143.73274071719
357,-19895.141418082585
358,44495.99645282122
359,8119.969371253226
360,6336.588464472635
361,32100.673607266297
362,0.0
363,-514413.5986479442
364,0.0
365,-337741.1579612214
366,0.0
367,-123395.02486349398
368,258435.76684167694
369,33464.631674539814
370,0.0
371,-538773.9564446549
372,-26190.03348312854
373,-25550.504391223993
374,-5558.450429667415
375,209159.6578243379
376,33335.15732806398
377,28099.7880095707
378,0.0
379,-171890.37036548809
380,0.0
381,-36036.49315499462
382,0.0
383,-54151.885676546866
384,0.0
385,-49455.29972806884
386,15504.815099481822
387,1406.1831943040955
388,8650.070948557686
389,14758.104407884075
390,17194.94989325463
391,0.0
392,-77778.62785865215
393,0.0
394,-190036.51141732237
395,33238.21487713084
396,3699.816927103099
397,343184.50949933487
398,0.0
399,174820.3248836921
400,0.0
401,649549.3102762093
402,0.0
403,174919.6382106208
404,0.0
405,218436.37380545849
406,0.0
407,272973.2153743127
408,0.0
856,924383.8077170394
905,0.0
954,444488.8717779242
955,0.0
956,889024.3485878096
957,0.0
958,421748.50010071977
959,0.0
960,2248783.501437559
961,0.0
962,1373793.523739731
963,0.0
964,512130.6065715774
965,0.0
966,86393.07617702006
967,2199.891004162143
968,615430.551443991
969,0.0
970,555453.60579702
971,0.0
972,1032210.5620953722
973,0.0
974,733005.0340719207
975,0.0
2,1, 1, 1, 0, 2, 0.00,60.00,Sunday
7,0.0
8,0.0
9,0.0
10,0.0
11,0.0
12,0.0
313,0.0
314,0.0
315,0.0
316,0.0
317,0.0
318,0.0
319,0.0
320,251559.70694872368
321,0.0
322,187443.29061111655
323,0.0
324,219673.14778122115
325,0.0
326,209432.17117279306
327,0.0
328,377480.19681101499
329,0.0
330,209636.41942077754
331,0.0
332,230700.96378278984
333,0.0
334,63244.330724635955
335,0.0
336,95595.59383822268
337,0.0
338,39193.77992264596
339,0.0
340,134666.90508925607
341,0.0
342,189538.75644432178
343,0.0
344,-249976.14496565425
345,14454.507541260868
346,-12221.164470514492
347,-7163.1109810734419
348,-25918.038529834233
349,0.0
350,8720.10724025127
351,227607.432086465
352,32506.98442764129
353,28341.019088546524
354,-6675.898384115708
355,0.0
356,146915.61731825039
357,-18882.724634614722
358,34196.25649064269
359,4859.89605105993
360,6049.291343578857
361,28974.764897919453
362,0.0
363,-210028.8605759404
364,0.0
365,151436.6408072865
366,0.0
367,141330.97733253585
368,208694.03355686167
369,22136.36477246946
370,0.0
371,-225807.6117066206
372,-24578.30347672906
373,-23655.418329392924
374,-6404.642852642794
375,178216.1073468861
376,26519.35882619691
377,25342.397309191583
378,0.0
379,-66881.77592382128
380,0.0
381,47310.536244555085
382,0.0
383,70784.97000761038
384,0.0
385,5305.584808973184
386,11405.26204486005
387,504.5011454286262
388,7531.99105024262
389,12850.520068539263
390,15707.949745764616
391,0.0
392,95128.07374340072
393,0.0
394,62661.30415241152
395,21654.100265522866
396,936.042344678118
397,264343.37631674457
398,0.0
399,132207.28996473374
400,0.0
401,500946.29873228396
402,0.0
403,132564.73546768764
404,0.0
405,175478.1426678363
406,0.0
407,212038.0483416648
408,0.0
856,738597.4639821191
905,0.0
954,363799.79909040036
955,0.0
956,720374.769548073
957,0.0
958,362728.0950441609
959,0.0
960,1825783.1595815335
961,0.0
962,1141459.4572046616
963,0.0
964,394437.4744058914
965,0.0
966,67252.15497361233
967,1105.6702298983492
968,520018.36621677307
969,0.0
970,470580.56000077226
971,0.0
972,854729.5215018842
973,0.0
974,618811.9318991184
975,0.0
2,1, 1, 1, 0, 3, 0.00,60.00,Sunday
7,0.0
8,0.0
9,0.0
10,0.0
11,0.0
12,0.0
313,0.0
314,0.0
315,0.0
316,0.0
317,0.0
318,0.0
319,0.0
320,256105.0414273394
321,0.0
322,190843.00434618406
323,0.0
324,225141.91410523529
325,0.0
326,214113.1142546701
327,0.0
328,385864.0659106508
329,0.0
330,214338.1178997483
331,0.0
332,234981.16989407846
333,0.0
334,64900.72377361625
335,0.0
336,98145.1171179915
337,0.0
338,40223.866690810806
339,0.0
340,138156.38305200509
341,0.0
342,194551.64897138946
343,0.0
344,-345956.05938569779
345,17131.78038554467
346,-9540.137546562604
347,-5591.698253108999
348,-22319.141657296284
349,0.0
350,-77188.81608375287
351,203249.89631275429
352,29406.222420243088
353,26982.37249313007
354,-5674.922982287329
355,0.0
356,32912.09389986175
357,-16507.216680063928
358,31983.561999185164
359,4454.1879294130089
360,9873.191231233866
361,29990.124550887547
362,0.0
363,-293202.652411936
364,0.0
365,-37562.187506379814
366,0.0
367,32173.46560478507
368,193134.38635338885
369,21283.138997237904
370,0.0
371,-312455.52612943897
372,-21177.985435421477
373,-19017.668952871758
374,-5165.2952493858069
375,158468.40691262828
376,23530.781917708675
377,26212.786112489062
378,0.0
379,-95111.75785332635
380,0.0
381,13015.433115070202
382,0.0
383,18821.103262271343
384,0.0
385,-14240.892291779384
386,10192.023102324587
387,530.4462723801855
388,7469.369597211243
389,12743.680026705322
390,18264.159571563556
391,0.0
392,23465.353377472587
393,0.0
394,-33968.812570532566
395,20219.101577667432
396,1303.1378917168179
397,292452.9398681086
398,0.0
399,147183.4117862365
400,0.0
401,553900.8187089233
402,0.0
403,147502.90820857656
404,0.0
405,187207.318182327
406,0.0
407,233621.21628929754
408,0.0
856,813434.3786381905
905,0.0
954,391996.4790806049
955,0.0
956,744752.532091872
957,0.0
958,340868.8878759541
959,0.0
960,1912548.853323146
961,0.0
962,1143410.5896226769
963,0.0
964,450884.4400526377
965,0.0
966,80260.2229813822
967,0.0
968,532367.3827461822
969,0.0
970,478698.61052559516
971,0.0
972,876164.4310250294
973,0.0
974,611765.1366377999
975,0.0
2,1, 1, 1, 0, 4, 0.00,60.00,Sunday
7,0.0
8,0.0
9,0.0
10,0.0
11,0.0
12,0.0
313,0.0
314,0.0
315,0.0
316,0.0
317,0.0
318,0.0
319,0.0
320,258056.48542179657
321,0.0
322,192284.7352356642
323,0.0
324,228219.3714389087
325,0.0
326,216559.58367370419
327,0.0
328,390075.11177703519
329,0.0
330,216713.58538339879
331,0.0
332,236923.85244103708
333,0.0
334,65752.76541487486
335,0.0
336,99432.36418896288
337,0.0
338,40766.164189507894
339,0.0
340,140110.43674809763
341,0.0
342,197397.68305029008
343,0.0
344,-378595.3234172722
345,17476.267371637954
346,-8242.487402663788
347,-4831.115084640942
348,-20910.04642748308
349,0.0
350,-117576.33368047085
351,182681.63337220194
352,26210.57547831446
353,24454.147703849245
354,-6419.020434040239
355,0.0
356,-27105.238451886762
357,-15990.857860328655
358,30765.361132914928
359,4395.808379679631
360,11295.325275542256
361,28819.190722611173
362,0.0
363,-321815.70265134776
364,0.0
365,-133120.53402852547
366,0.0
367,-25771.77829959176
368,178824.57806492345
369,20410.161688784483
370,0.0
371,-341867.59562610197
372,-19601.43126412421
373,-15753.320761684856
374,-5429.553970456011
375,142323.17528479859
376,21420.29859927442
377,25286.54976579988
378,0.0
379,-105068.47408620238
380,0.0
381,-5212.4867019839689
382,0.0
383,-8602.689730368984
384,0.0
385,-23522.3959434028
386,9373.963753872162
387,614.80769124188
388,6825.729326333349
389,11645.549112493734
390,18740.890661018508
391,0.0
392,-14544.367606437258
393,0.0
394,-81518.8000169252
395,19373.976348748653
396,1686.5493193188123
397,304949.758021638
398,0.0
399,154659.4139333362
400,0.0
401,577248.722531165
402,0.0
403,154865.64963586723
404,0.0
405,191416.6475506155
406,0.0
407,242685.8874346015
408,0.0
856,884915.6157490839
905,0.0
954,443366.1251853266
955,0.0
956,768294.94641063
957,0.0
958,341700.22339875888
959,0.0
960,1992939.638852392
961,0.0
962,1187579.24165176
963,0.0
964,499516.7480539036
965,0.0
966,108387.74945760759
967,0.0
968,547225.5544884618
969,0.0
970,492259.99813102287
971,0.0
972,898102.344351061
973,0.0
974,622220.2165989607
975,0.0
2,1, 1, 1, 0, 5, 0.00,60.00,Sunday
7,0.0
8,0.0
9,0.0
10,0.0
11,0.0
12,0.0
313,0.0
314,0.0
315,0.0
316,0.0
317,0.0
318,0.0
319,0.0
320,256243.37857039547
321,0.0
322,190919.43184135663
323,0.0
324,227582.3391840428
325,0.0
326,215617.6843519174
327,0.0
328,388199.17910030428
329,0.0
330,215679.55883736234
331,0.0
332,235342.77596673562
333,0.0
334,65513.66972073487
335,0.0
336,99034.98320080915
337,0.0
338,40633.787800832644
339,0.0
340,139754.83057673434
341,0.0
342,196937.04259007358
343,0.0
344,-371556.93653233037
345,16706.644041185307
346,-7436.96203936581
347,-4358.977786325864
348,-20147.25818240562
349,0.0
350,-127511.3000237218
351,163967.7083032411
352,22932.723471073645
353,21517.832286704288
354,-7510.71678581757
355,0.0
356,-49811.971300379555
357,-15979.499512223403
358,29244.91721450834
359,4224.805873604557
360,11868.083008603988
361,27019.138293014388
362,0.0
363,-315958.2374390716
364,0.0
365,-164003.06854194773
366,0.0
367,-47632.010231212094
368,163305.89560838126
369,18827.560154847808
370,0.0
371,-335553.10502299907
372,-18883.55334807699
373,-13523.180947825282
374,-5830.910941760255
375,128172.12604447692
376,19568.06199611299
377,23904.891085447936
378,0.0
379,-103280.71525345172
380,0.0
381,-12156.305891902832
382,0.0
383,-18852.021568675533
384,0.0
385,-25902.254540270267
386,8480.263161411109
387,617.2932420334779
388,6082.337362433408
389,10377.229316683697
390,18473.020643464642
391,0.0
392,-28965.448940241557
393,0.0
394,-95849.63107078368
395,17987.53747767289
396,1772.32154826782
397,310012.22591218436
398,0.0
399,158086.03774717629
400,0.0
401,586625.6764844777
402,0.0
403,158194.1375529978
404,0.0
405,192680.4280926618
406,0.0
407,246149.44419737976
408,0.0
856,935234.1069064166
905,0.0
954,487330.2567018908
955,2522.6997220275109
956,779631.257455647
957,0.0
958,343149.4162919036
959,1205.77547328582
960,2037679.686491354
961,0.0
962,1221227.4762044219
963,4790.4731132174679
964,532643.2781780779
965,0.0
966,132843.507871587
967,1227.3226414643817
968,554956.8469382884
969,0.0
970,499947.0876901543
971,470.7275699315119
972,907055.7494613206
973,0.0
974,628257.5686023352
975,1937.0877756065625
2,1, 1, 1, 0, 6, 0.00,60.00,Sunday
7,0.0
8,0.0
9,0.0
10,0.0
11,0.0
12,0.0
313,0.0
314,0.0
315,0.0
316,0.0
317,0.0
318,0.0
319,0.0
320,255500.89215459408
321,0.0
322,190392.7946958547
323,0.0
324,228082.01524538594
325,0.0
326,215479.61212636383
327,0.0
328,388341.2446137968
329,0.0
330,215763.40588352574
331,0.0
332,234717.11661330009
333,0.0
334,65597.85901558612
335,0.0
336,99232.56801896775
337,0.0
338,40653.678496435336
339,0.0
340,140081.73010233048
341,0.0
342,197324.46995071643
343,0.0
344,-365418.1088260001
345,15836.032988914947
346,-6728.203211880986
347,-3943.5576230232475
348,-19458.723793308734
349,0.0
350,-131195.279620417
351,147674.79471231439
352,19962.71487432254
353,18854.654435081735
354,-8463.079401578487
355,0.0
356,-57904.51514953852
357,-15957.441979972447
358,27664.104954158858
359,4000.6171103677377
360,12370.226313606985
361,25443.854737064303
362,0.0
363,-310649.0877817911
364,0.0
365,-174328.17794754276
366,0.0
367,-55312.1527792773
368,148666.26621265897
369,17175.404303417494
370,0.0
371,-330142.95976496775
372,-18305.406360587593
373,-11802.91828535652
374,-6446.016001166685
375,115678.19623585939
376,17901.26654322503
377,22707.954840404404
378,0.0
379,-101525.21913817233
380,0.0
381,-14605.899763069121
382,0.0
383,-22988.38667694288
384,0.0
385,-26759.16928797189
386,7628.071079096613
387,585.725816771202
388,5443.707474320833
389,9287.646742990146
390,18208.68680178798
391,0.0
392,-34016.02319046014
393,0.0
394,-101975.13897193586
395,16611.660488029676
396,1752.9930911597454
397,310470.58719956388
398,0.0
399,158898.74822265405
400,0.0
401,587366.2879896775
402,0.0
403,158933.57784600426
404,0.0
405,192049.20659651274
406,0.0
407,246176.19941411034
408,0.0
856,979239.192403898
905,0.0
954,531058.1038009285
955,3173.371965437741
956,790416.956432512
957,0.0
958,352471.4552382196
959,2455.1866986554616
960,2078956.1233990554
961,0.0
962,1262055.3570754808
963,5828.052384258377
964,563035.5228403315
965,0.0
966,162080.28294851676
967,2349.813344994085
968,561550.1440176371
969,0.0
970,506539.8693413256
971,238.05039022927873
972,915188.8857168431
973,0.0
974,636331.383486724
975,2005.2939491235009
2,1, 1, 1, 0, 7, 0.00,60.00,Sunday
7,19668.978465516004
8,19219.006001915997
9,35851.68139071601
10,17595.307736315997
11,2414.2394484117014
12,12239.017291116008
313,0.0
314,0.0
315,0.0
316,0.0
317,0.0
318,0.0
319,0.0
320,259659.93137505308
321,0.0
322,193855.80843136105
323,0.0
324,232968.92047078338
325,0.0
326,219413.16841801629
327,0.0
328,396022.3042373811
329,0.0
330,220043.2057851459
331,0.0
332,238534.98370395453
333,0.0
334,67113.46975233463
335,0.0
336,101678.01190220873
337,0.0
338,41606.12741713433
339,0.0
340,143204.16178148159
341,0.0
342,202056.78587322794
343,0.0
344,-390445.2430995548
345,14640.240886610356
346,-6339.928735413211
347,-3715.980850550618
348,-19170.869699749444
349,0.0
350,-156726.17373438134
351,132365.9515463704
352,16763.3546532904
353,15770.586971011911
354,-9998.57616145192
355,0.0
356,-91967.11178192293
357,-16673.961887439422
358,23943.34516791625
359,2969.922932629725
360,12195.449863318845
361,23526.85083456419
362,0.0
363,-332534.69253652277
364,0.0
365,-230835.62332823516
366,0.0
367,-88188.33234207938
368,131466.03419717236
369,14321.301390101557
370,0.0
371,-352839.36940786449
372,-18516.995542686796
373,-11185.125533518352
374,-7729.6145878064949
375,102605.72767527303
376,15228.798250878994
377,21840.97202308371
378,0.0
379,-108900.57075372334
380,0.0
381,-24884.6802297576
382,0.0
383,-39442.69906136222
384,0.0
385,-32483.777488731066
386,6845.6685957368849
387,544.3004329982875
388,4795.810762848593
389,8182.253808030916
390,17629.741249069528
391,0.0
392,-55430.78074204401
393,0.0
394,-131167.8574828153
395,14497.011755165275
396,1394.6214825312866
397,316081.8803698073
398,0.0
399,161939.19644394646
400,0.0
401,597960.80015936
402,0.0
403,161947.0763417152
404,0.0
405,195715.72083536609
406,0.0
407,250586.61741069583
408,0.0
856,1003330.0974169512
905,0.0
954,546095.3734511247
955,878.4266384718649
956,783130.2826353209
957,0.0
958,336351.61196206658
959,827.9354845927941
960,2093888.0564423493
961,0.0
962,1260467.3705108627
963,1581.546164042686
964,576978.4844975437
965,0.0
966,167942.75600427629
967,782.0675082331803
968,570519.4664830258
969,0.0
970,514406.0232880567
971,4.278331215675735
972,916317.7024827786
973,0.0
974,631807.7820957778
975,478.1863914413748
2,1, 1, 1, 0, 8, 0.00,60.00,Sunday
7,19668.978465516004
8,19219.006001915997
9,35851.68139071601
10,17595.307736315997
11,2414.2394484117014
12,12239.017291116008
313,105340.34833617782
314,32276.67878734661
315,245195.2243166463
316,69831.18767162824
317,28573.743503274913
318,44864.75175250455
319,0.0
320,164733.4106450909
321,0.0
322,163476.57614500659
323,0.0
324,197716.1915910793
325,0.0
326,136995.3009895533
327,9510.278891869588
328,228321.55274173514
329,0.0
330,185173.6420577482
331,0.0
332,153930.2856797722
333,0.0
334,55586.41066800887
335,0.0
336,88921.54265087848
337,0.0
338,34685.18696076073
339,0.0
340,120537.98634984243
341,0.0
342,176191.26049159299
343,361969.8809378142
344,-282787.1645836643
345,9045.295467357397
346,-8298.476936991083
347,-4863.9318632001909
348,-21615.78636670542
349,126737.48090688235
350,-139602.20772487499
351,96172.70778091403
352,10520.153295672253
353,12162.621090503268
354,-12005.905373758611
355,150213.68372975928
356,-74972.0675801336
357,-18246.869010785686
358,15413.705914034306
359,1406.1240423461346
360,4498.115987568905
361,15078.411462572709
362,315359.416806326
363,-241107.8747985146
364,667012.2530070308
365,-59724.49835921695
366,147272.62160048233
367,-75677.32066652917
368,53636.14813520979
369,2439.662956755949
370,323080.62241531399
371,-255821.74324916103
372,-21669.079226164074
373,-14659.707480208332
374,-11956.393210514416
375,75521.23911204549
376,10393.686552041892
377,17749.221180825058
378,108989.99536482424
379,-77281.7628802057
380,48678.54872224518
381,-19543.9782355363
382,57118.80951034505
383,-36167.14924948971
384,29192.81958803945
385,-28543.93716950838
386,4101.154157156877
387,90.95828200417846
388,3498.5706009416064
389,5968.999620246945
390,13975.331011175862
391,96208.88452811112
392,-45207.45876786923
393,128910.85266993434
394,-115317.04855366842
395,5657.528549972896
396,-133.3768875283749
397,323928.6643728188
398,0.0
399,166094.83875108316
400,0.0
401,612779.6650875455
402,0.0
403,166083.3261121139
404,0.0
405,200172.07832471963
406,0.0
407,256740.28954655969
408,0.0
856,1022952.7916711336
905,0.0
954,559395.628622402
955,5710.48603277398
956,792320.5358705926
957,0.0
958,339343.1843268463
959,5835.845277256229