Program Version,EnergyPlus, Version 9.3.0-baff08990c, YMD=2021.04.24 21:16
1,5,Environment Title[],Latitude[deg],Longitude[deg],Time Zone[],Elevation[m]
2,8,Day of Simulation[],Month[],Day of Month[],DST Indicator[1=yes 0=no],Hour[],StartMinute[],EndMinute[],DayType
3,5,Cumulative Day of Simulation[],Month[],Day of Month[],DST Indicator[1=yes 0=no],DayType  ! When Daily Report Variables Requested
4,2,Cumulative Days of Simulation[],Month[]  ! When Monthly Report Variables Requested
5,1,Cumulative Days of Simulation[] ! When Run Period Report Variables Requested
6,1,Calendar Year of Simulation[] ! When Annual Report Variables Requested
7,1,ROOM_0026B1D8,Zone People Total Heating Energy [J] !Hourly
8,1,ROOM_0F418FD1,Zone People Total Heating Energy [J] !Hourly
9,1,ROOM_16F92D8C,Zone People Total Heating Energy [J] !Hourly
10,1,ROOM_3A9928F2,Zone People Total Heating Energy [J] !Hourly
11,1,ROOM_592EF890,Zone People Total Heating Energy [J] !Hourly
12,1,ROOM_59A8D732,Zone People Total Heating Energy [J] !Hourly
13,1,ROOM_6E9F8F31,Zone People Total Heating Energy [J] !Hourly
14,1,ROOM_747C74EA,Zone People Total Heating Energy [J] !Hourly
15,1,ROOM_79360F7D,Zone People Total Heating Energy [J] !Hourly
16,1,ROOM_87384F97,Zone People Total Heating Energy [J] !Hourly
17,1,ROOM_B487F70E,Zone People Total Heating Energy [J] !Hourly
18,1,ROOM_BB8DCF99,Zone People Total Heating Energy [J] !Hourly
19,1,ROOM_D19B0824,Zone People Total Heating Energy [J] !Hourly
20,1,ROOM_E01D97D5,Zone People Total Heating Energy [J] !Hourly
21,1,ROOM_E24DDC74,Zone People Total Heating Energy [J] !Hourly
664,1,ROOM_0026B1D8,Zone Windows Total Transmitted Solar Radiation Energy [J] !Hourly
665,1,ROOM_0F418FD1,Zone Windows Total Transmitted Solar Radiation Energy [J] !Hourly
666,1,ROOM_16F92D8C,Zone Windows Total Transmitted Solar Radiation Energy [J] !Hourly
667,1,ROOM_3A9928F2,Zone Windows Total Transmitted Solar Radiation Energy [J] !Hourly
668,1,ROOM_592EF890,Zone Windows Total Transmitted Solar Radiation Energy [J] !Hourly
669,1,ROOM_59A8D732,Zone Windows Total Transmitted Solar Radiation Energy [J] !Hourly
670,1,ROOM_6E9F8F31,Zone Windows Total Transmitted Solar Radiation Energy [J] !Hourly
671,1,ROOM_747C74EA,Zone Windows Total Transmitted Solar Radiation Energy [J] !Hourly
672,1,ROOM_79360F7D,Zone Windows Total Transmitted Solar Radiation Energy [J] !Hourly
673,1,ROOM_87384F97,Zone Windows Total Transmitted Solar Radiation Energy [J] !Hourly
674,1,ROOM_B487F70E,Zone Windows Total Transmitted Solar Radiation Energy [J] !Hourly
675,1,ROOM_BB8DCF99,Zone Windows Total Transmitted Solar Radiation Energy [J] !Hourly
676,1,ROOM_D19B0824,Zone Windows Total Transmitted Solar Radiation Energy [J] !Hourly
677,1,ROOM_E01D97D5,Zone Windows Total Transmitted Solar Radiation Energy [J] !Hourly
678,1,ROOM_E24DDC74,Zone Windows Total Transmitted Solar Radiation Energy [J] !Hourly
679,1,ROOM_0026B1D8..FACE4_GLZ1,Surface Window Heat Gain Energy [J] !Hourly
680,1,ROOM_0026B1D8..FACE4_GLZ1,Surface Window Heat Loss Energy [J] !Hourly
681,1,ROOM_0026B1D8..FACE5_GLZ1,Surface Window Heat Gain Energy [J] !Hourly
682,1,ROOM_0026B1D8..FACE5_GLZ1,Surface Window Heat Loss Energy [J] !Hourly
683,1,ROOM_3A9928F2..FACE4_GLZ1,Surface Window Heat Gain Energy [J] !Hourly
684,1,ROOM_3A9928F2..FACE4_GLZ1,Surface Window Heat Loss Energy [J] !Hourly
685,1,ROOM_3A9928F2..FACE5_GLZ1,Surface Window Heat Gain Energy [J] !Hourly
686,1,ROOM_3A9928F2..FACE5_GLZ1,Surface Window Heat Loss Energy [J] !Hourly
687,1,ROOM_592EF890..FACE2_GLZ1,Surface Window Heat Gain Energy [J] !Hourly
688,1,ROOM_592EF890..FACE2_GLZ1,Surface Window Heat Loss Energy [J] !Hourly
689,1,ROOM_592EF890..FACE3_GLZ1,Surface Window Heat Gain Energy [J] !Hourly
690,1,ROOM_592EF890..FACE3_GLZ1,Surface Window Heat Loss Energy [J] !Hourly
691,1,ROOM_59A8D732..FACE3_GLZ1,Surface Window Heat Gain Energy [J] !Hourly
692,1,ROOM_59A8D732..FACE3_GLZ1,Surface Window Heat Loss Energy [J] !Hourly
693,1,ROOM_59A8D732..FACE4_GLZ1,Surface Window Heat Gain Energy [J] !Hourly
694,1,ROOM_59A8D732..FACE4_GLZ1,Surface Window Heat Loss Energy [J] !Hourly
695,1,ROOM_6E9F8F31..FACE2_GLZ1,Surface Window Heat Gain Energy [J] !Hourly
696,1,ROOM_6E9F8F31..FACE2_GLZ1,Surface Window Heat Loss Energy [J] !Hourly
697,1,ROOM_6E9F8F31..FACE3_GLZ1,Surface Window Heat Gain Energy [J] !Hourly
698,1,ROOM_6E9F8F31..FACE3_GLZ1,Surface Window Heat Loss Energy [J] !Hourly
699,1,ROOM_747C74EA..FACE1_GLZ1,Surface Window Heat Gain Energy [J] !Hourly
700,1,ROOM_747C74EA..FACE1_GLZ1,Surface Window Heat Loss Energy [J] !Hourly
701,1,ROOM_747C74EA..FACE2_GLZ1,Surface Window Heat Gain Energy [J] !Hourly
702,1,ROOM_747C74EA..FACE2_GLZ1,Surface Window Heat Loss Energy [J] !Hourly
703,1,ROOM_79360F7D..FACE3_GLZ1,Surface Window Heat Gain Energy [J] !Hourly
704,1,ROOM_79360F7D..FACE3_GLZ1,Surface Window Heat Loss Energy [J] !Hourly
705,1,ROOM_79360F7D..FACE4_GLZ1,Surface Window Heat Gain Energy [J] !Hourly
706,1,ROOM_79360F7D..FACE4_GLZ1,Surface Window Heat Loss Energy [J] !Hourly
707,1,ROOM_87384F97..FACE1_GLZ1,Surface Window Heat Gain Energy [J] !Hourly
708,1,ROOM_87384F97..FACE1_GLZ1,Surface Window Heat Loss Energy [J] !Hourly
709,1,ROOM_B487F70E..FACE1_GLZ1,Surface Window Heat Gain Energy [J] !Hourly
710,1,ROOM_B487F70E..FACE1_GLZ1,Surface Window Heat Loss Energy [J] !Hourly
711,1,ROOM_B487F70E..FACE4_GLZ1,Surface Window Heat Gain Energy [J] !Hourly
712,1,ROOM_B487F70E..FACE4_GLZ1,Surface Window Heat Loss Energy [J] !Hourly
713,1,ROOM_BB8DCF99..FACE1_GLZ1,Surface Window Heat Gain Energy [J] !Hourly
714,1,ROOM_BB8DCF99..FACE1_GLZ1,Surface Window Heat Loss Energy [J] !Hourly
715,1,ROOM_D19B0824..FACE1_GLZ1,Surface Window Heat Gain Energy [J] !Hourly
716,1,ROOM_D19B0824..FACE1_GLZ1,Surface Window Heat Loss Energy [J] !Hourly
717,1,ROOM_E01D97D5..FACE3_GLZ1,Surface Window Heat Gain Energy [J] !Hourly
718,1,ROOM_E01D97D5..FACE3_GLZ1,Surface Window Heat Loss Energy [J] !Hourly
719,1,ROOM_E24DDC74..FACE3_GLZ1,Surface Window Heat Gain Energy [J] !Hourly
720,1,ROOM_E24DDC74..FACE3_GLZ1,Surface Window Heat Loss Energy [J] !Hourly
721,1,ROOM_0026B1D8..FACE1,Surface Average Face Conduction Heat Transfer Energy [J] !Hourly
722,1,ROOM_0026B1D8..FACE2,Surface Average Face Conduction Heat Transfer Energy [J] !Hourly
723,1,ROOM_0026B1D8..FACE3,Surface Average Face Conduction Heat Transfer Energy [J] !Hourly
724,1,ROOM_0026B1D8..FACE4,Surface Outside Face Solar Radiation Heat Gain Energy [J] !Hourly
725,1,ROOM_0026B1D8..FACE4,Surface Average Face Conduction Heat Transfer Energy [J] !Hourly
726,1,ROOM_0026B1D8..FACE5,Surface Outside Face Solar Radiation Heat Gain Energy [J] !Hourly
727,1,ROOM_0026B1D8..FACE5,Surface Average Face Conduction Heat Transfer Energy [J] !Hourly
728,1,ROOM_0026B1D8..FACE0,Surface Average Face Conduction Heat Transfer Energy [J] !Hourly
729,1,ROOM_0026B1D8..FACE6,Surface Average Face Conduction Heat Transfer Energy [J] !Hourly
730,1,ROOM_0F418FD1..FACE1,Surface Average Face Conduction Heat Transfer Energy [J] !Hourly
731,1,ROOM_0F418FD1..FACE2,Surface Average Face Conduction Heat Transfer Energy [J] !Hourly
732,1,ROOM_0F418FD1..FACE3,Surface Average Face Conduction Heat Transfer Energy [J] !Hourly
733,1,ROOM_0F418FD1..FACE4,Surface Average Face Conduction Heat Transfer Energy [J] !Hourly
734,1,ROOM_0F418FD1..FACE5,Surface Average Face Conduction Heat Transfer Energy [J] !Hourly
735,1,ROOM_0F418FD1..FACE6,Surface Average Face Conduction Heat Transfer Energy [J] !Hourly
736,1,ROOM_0F418FD1..FACE0,Surface Average Face Conduction Heat Transfer Energy [J] !Hourly
737,1,ROOM_0F418FD1..FACE7,Surface Average Face Conduction Heat Transfer Energy [J] !Hourly
738,1,ROOM_16F92D8C..FACE1,Surface Average Face Conduction Heat Transfer Energy [J] !Hourly
739,1,ROOM_16F92D8C..FACE2,Surface Average Face Conduction Heat Transfer Energy [J] !Hourly
740,1,ROOM_16F92D8C..FACE3,Surface Average Face Conduction Heat Transfer Energy [J] !Hourly
741,1,ROOM_16F92D8C..FACE4,Surface Average Face Conduction Heat Transfer Energy [J] !Hourly
742,1,ROOM_16F92D8C..FACE0,Surface Average Face Conduction Heat Transfer Energy [J] !Hourly
743,1,ROOM_16F92D8C..FACE5,Surface Average Face Conduction Heat Transfer Energy [J] !Hourly
744,1,ROOM_3A9928F2..FACE1,Surface Average Face Conduction Heat Transfer Energy [J] !Hourly
745,1,ROOM_3A9928F2..FACE2,Surface Average Face Conduction Heat Transfer Energy [J] !Hourly
746,1,ROOM_3A9928F2..FACE3,Surface Average Face Conduction Heat Transfer Energy [J] !Hourly
747,1,ROOM_3A9928F2..FACE4,Surface Outside Face Solar Radiation Heat Gain Energy [J] !Hourly
748,1,ROOM_3A9928F2..FACE4,Surface Average Face Conduction Heat Transfer Energy [J] !Hourly
749,1,ROOM_3A9928F2..FACE5,Surface Outside Face Solar Radiation Heat Gain Energy [J] !Hourly
750,1,ROOM_3A9928F2..FACE5,Surface Average Face Conduction Heat Transfer Energy [J] !Hourly
751,1,ROOM_3A9928F2..FACE6,Surface Average Face Conduction Heat Transfer Energy [J] !Hourly
752,1,ROOM_3A9928F2..FACE7,Surface Average Face Conduction Heat Transfer Energy [J] !Hourly
753,1,ROOM_3A9928F2..FACE0,Surface Average Face Conduction Heat Transfer Energy [J] !Hourly
754,1,ROOM_3A9928F2..FACE8,Surface Average Face Conduction Heat Transfer Energy [J] !Hourly
755,1,ROOM_592EF890..FACE1,Surface Average Face Conduction Heat Transfer Energy [J] !Hourly
756,1,ROOM_592EF890..FACE2,Surface Outside Face Solar Radiation Heat Gain Energy [J] !Hourly
757,1,ROOM_592EF890..FACE2,Surface Average Face Conduction Heat Transfer Energy [J] !Hourly
758,1,ROOM_592EF890..FACE3,Surface Outside Face Solar Radiation Heat Gain Energy [J] !Hourly
759,1,ROOM_592EF890..FACE3,Surface Average Face Conduction Heat Transfer Energy [J] !Hourly
760,1,ROOM_592EF890..FACE4,Surface Average Face Conduction Heat Transfer Energy [J] !Hourly
761,1,ROOM_592EF890..FACE0,Surface Average Face Conduction Heat Transfer Energy [J] !Hourly
762,1,ROOM_592EF890..FACE5,Surface Average Face Conduction Heat Transfer Energy [J] !Hourly
763,1,ROOM_59A8D732..FACE1,Surface Average Face Conduction Heat Transfer Energy [J] !Hourly
764,1,ROOM_59A8D732..FACE2,Surface Average Face Conduction Heat Transfer Energy [J] !Hourly
765,1,ROOM_59A8D732..FACE3,Surface Outside Face Solar Radiation Heat Gain Energy [J] !Hourly
766,1,ROOM_59A8D732..FACE3,Surface Average Face Conduction Heat Transfer Energy [J] !Hourly
767,1,ROOM_59A8D732..FACE4,Surface Outside Face Solar Radiation Heat Gain Energy [J] !Hourly
768,1,ROOM_59A8D732..FACE4,Surface Average Face Conduction Heat Transfer Energy [J] !Hourly
769,1,ROOM_59A8D732..FACE5,Surface Average Face Conduction Heat Transfer Energy [J] !Hourly
770,1,ROOM_59A8D732..FACE6,Surface Average Face Conduction Heat Transfer Energy [J] !Hourly
771,1,ROOM_59A8D732..FACE0,Surface Average Face Conduction Heat Transfer Energy [J] !Hourly
772,1,ROOM_59A8D732..FACE7,Surface Average Face Conduction Heat Transfer Energy [J] !Hourly
773,1,ROOM_6E9F8F31..FACE1,Surface Average Face Conduction Heat Transfer Energy [J] !Hourly
774,1,ROOM_6E9F8F31..FACE2,Surface Outside Face Solar Radiation Heat Gain Energy [J] !Hourly
775,1,ROOM_6E9F8F31..FACE2,Surface Average Face Conduction Heat Transfer Energy [J] !Hourly
776,1,ROOM_6E9F8F31..FACE3,Surface Outside Face Solar Radiation Heat Gain Energy [J] !Hourly
777,1,ROOM_6E9F8F31..FACE3,Surface Average Face Conduction Heat Transfer Energy [J] !Hourly
778,1,ROOM_6E9F8F31..FACE4,Surface Average Face Conduction Heat Transfer Energy [J] !Hourly
779,1,ROOM_6E9F8F31..FACE0,Surface Average Face Conduction Heat Transfer Energy [J] !Hourly
780,1,ROOM_6E9F8F31..FACE5,Surface Average Face Conduction Heat Transfer Energy [J] !Hourly
781,1,ROOM_747C74EA..FACE1,Surface Outside Face Solar Radiation Heat Gain Energy [J] !Hourly
782,1,ROOM_747C74EA..FACE1,Surface Average Face Conduction Heat Transfer Energy [J] !Hourly
783,1,ROOM_747C74EA..FACE2,Surface Outside Face Solar Radiation Heat Gain Energy [J] !Hourly
784,1,ROOM_747C74EA..FACE2,Surface Average Face Conduction Heat Transfer Energy [J] !Hourly
785,1,ROOM_747C74EA..FACE3,Surface Average Face Conduction Heat Transfer Energy [J] !Hourly
786,1,ROOM_747C74EA..FACE4,Surface Average Face Conduction Heat Transfer Energy [J] !Hourly
787,1,ROOM_747C74EA..FACE5,Surface Average Face Conduction Heat Transfer Energy [J] !Hourly
788,1,ROOM_747C74EA..FACE6,Surface Average Face Conduction Heat Transfer Energy [J] !Hourly
789,1,ROOM_747C74EA..FACE0,Surface Average Face Conduction Heat Transfer Energy [J] !Hourly
790,1,ROOM_747C74EA..FACE7,Surface Average Face Conduction Heat Transfer Energy [J] !Hourly
791,1,ROOM_79360F7D..FACE1,Surface Average Face Conduction Heat Transfer Energy [J] !Hourly
792,1,ROOM_79360F7D..FACE2,Surface Average Face Conduction Heat Transfer Energy [J] !Hourly
793,1,ROOM_79360F7D..FACE3,Surface Outside Face Solar Radiation Heat Gain Energy [J] !Hourly
794,1,ROOM_79360F7D..FACE3,Surface Average Face Conduction Heat Transfer Energy [J] !Hourly
795,1,ROOM_79360F7D..FACE4,Surface Outside Face Solar Radiation Heat Gain Energy [J] !Hourly
796,1,ROOM_79360F7D..FACE4,Surface Average Face Conduction Heat Transfer Energy [J] !Hourly
797,1,ROOM_79360F7D..FACE0,Surface Average Face Conduction Heat Transfer Energy [J] !Hourly
798,1,ROOM_79360F7D..FACE5,Surface Average Face Conduction Heat Transfer Energy [J] !Hourly
799,1,ROOM_87384F97..FACE1,Surface Outside Face Solar Radiation Heat Gain Energy [J] !Hourly
800,1,ROOM_87384F97..FACE1,Surface Average Face Conduction Heat Transfer Energy [J] !Hourly
801,1,ROOM_87384F97..FACE2,Surface Average Face Conduction Heat Transfer Energy [J] !Hourly
802,1,ROOM_87384F97..FACE3,Surface Average Face Conduction Heat Transfer Energy [J] !Hourly
803,1,ROOM_87384F97..FACE4,Surface Average Face Conduction Heat Transfer Energy [J] !Hourly
804,1,ROOM_87384F97..FACE0,Surface Average Face Conduction Heat Transfer Energy [J] !Hourly
805,1,ROOM_87384F97..FACE5,Surface Average Face Conduction Heat Transfer Energy [J] !Hourly
806,1,ROOM_B487F70E..FACE1,Surface Outside Face Solar Radiation Heat Gain Energy [J] !Hourly
807,1,ROOM_B487F70E..FACE1,Surface Average Face Conduction Heat Transfer Energy [J] !Hourly
808,1,ROOM_B487F70E..FACE2,Surface Average Face Conduction Heat Transfer Energy [J] !Hourly
809,1,ROOM_B487F70E..FACE3,Surface Average Face Conduction Heat Transfer Energy [J] !Hourly
810,1,ROOM_B487F70E..FACE4,Surface Outside Face Solar Radiation Heat Gain Energy [J] !Hourly
811,1,ROOM_B487F70E..FACE4,Surface Average Face Conduction Heat Transfer Energy [J] !Hourly
812,1,ROOM_B487F70E..FACE0,Surface Average Face Conduction Heat Transfer Energy [J] !Hourly
813,1,ROOM_B487F70E..FACE5,Surface Average Face Conduction Heat Transfer Energy [J] !Hourly
814,1,ROOM_BB8DCF99..FACE1,Surface Outside Face Solar Radiation Heat Gain Energy [J] !Hourly
815,1,ROOM_BB8DCF99..FACE1,Surface Average Face Conduction Heat Transfer Energy [J] !Hourly
816,1,ROOM_BB8DCF99..FACE2,Surface Average Face Conduction Heat Transfer Energy [J] !Hourly
817,1,ROOM_BB8DCF99..FACE3,Surface Average Face Conduction Heat Transfer Energy [J] !Hourly
818,1,ROOM_BB8DCF99..FACE4,Surface Average Face Conduction Heat Transfer Energy [J] !Hourly
819,1,ROOM_BB8DCF99..FACE5,Surface Average Face Conduction Heat Transfer Energy [J] !Hourly
820,1,ROOM_BB8DCF99..FACE0,Surface Average Face Conduction Heat Transfer Energy [J] !Hourly
821,1,ROOM_BB8DCF99..FACE6,Surface Average Face Conduction Heat Transfer Energy [J] !Hourly
822,1,ROOM_D19B0824..FACE1,Surface Outside Face Solar Radiation Heat Gain Energy [J] !Hourly
823,1,ROOM_D19B0824..FACE1,Surface Average Face Conduction Heat Transfer Energy [J] !Hourly
824,1,ROOM_D19B0824..FACE2,Surface Average Face Conduction Heat Transfer Energy [J] !Hourly
825,1,ROOM_D19B0824..FACE3,Surface Average Face Conduction Heat Transfer Energy [J] !Hourly
826,1,ROOM_D19B0824..FACE4,Surface Average Face Conduction Heat Transfer Energy [J] !Hourly
827,1,ROOM_D19B0824..FACE5,Surface Average Face Conduction Heat Transfer Energy [J] !Hourly
828,1,ROOM_D19B0824..FACE0,Surface Average Face Conduction Heat Transfer Energy [J] !Hourly
829,1,ROOM_D19B0824..FACE6,Surface Average Face Conduction Heat Transfer Energy [J] !Hourly
830,1,ROOM_E01D97D5..FACE1,Surface Average Face Conduction Heat Transfer Energy [J] !Hourly
831,1,ROOM_E01D97D5..FACE2,Surface Average Face Conduction Heat Transfer Energy [J] !Hourly
832,1,ROOM_E01D97D5..FACE3,Surface Outside Face Solar Radiation Heat Gain Energy [J] !Hourly
833,1,ROOM_E01D97D5..FACE3,Surface Average Face Conduction Heat Transfer Energy [J] !Hourly
834,1,ROOM_E01D97D5..FACE4,Surface Average Face Conduction Heat Transfer Energy [J] !Hourly
835,1,ROOM_E01D97D5..FACE0,Surface Average Face Conduction Heat Transfer Energy [J] !Hourly
836,1,ROOM_E01D97D5..FACE5,Surface Average Face Conduction Heat Transfer Energy [J] !Hourly
837,1,ROOM_E24DDC74..FACE1,Surface Average Face Conduction Heat Transfer Energy [J] !Hourly
838,1,ROOM_E24DDC74..FACE2,Surface Average Face Conduction Heat Transfer Energy [J] !Hourly
839,1,ROOM_E24DDC74..FACE3,Surface Outside Face Solar Radiation Heat Gain Energy [J] !Hourly
840,1,ROOM_E24DDC74..FACE3,Surface Average Face Conduction Heat Transfer Energy [J] !Hourly
841,1,ROOM_E24DDC74..FACE0,Surface Average Face Conduction Heat Transfer Energy [J] !Hourly
842,1,ROOM_E24DDC74..FACE4,Surface Average Face Conduction Heat Transfer Energy [J] !Hourly
843,1,ROOM_0026B1D8,Zone Infiltration Total Heat Loss Energy [J] !Hourly
844,1,ROOM_0026B1D8,Zone Infiltration Total Heat Gain Energy [J] !Hourly
845,1,ROOM_0F418FD1,Zone Infiltration Total Heat Loss Energy [J] !Hourly
846,1,ROOM_0F418FD1,Zone Infiltration Total Heat Gain Energy [J] !Hourly
847,1,ROOM_16F92D8C,Zone Infiltration Total Heat Loss Energy [J] !Hourly
848,1,ROOM_16F92D8C,Zone Infiltration Total Heat Gain Energy [J] !Hourly
849,1,ROOM_3A9928F2,Zone Infiltration Total Heat Loss Energy [J] !Hourly
850,1,ROOM_3A9928F2,Zone Infiltration Total Heat Gain Energy [J] !Hourly
851,1,ROOM_592EF890,Zone Infiltration Total Heat Loss Energy [J] !Hourly
852,1,ROOM_592EF890,Zone Infiltration Total Heat Gain Energy [J] !Hourly
853,1,ROOM_59A8D732,Zone Infiltration Total Heat Loss Energy [J] !Hourly
854,1,ROOM_59A8D732,Zone Infiltration Total Heat Gain Energy [J] !Hourly
855,1,ROOM_6E9F8F31,Zone Infiltration Total Heat Loss Energy [J] !Hourly
856,1,ROOM_6E9F8F31,Zone Infiltration Total Heat Gain Energy [J] !Hourly
857,1,ROOM_747C74EA,Zone Infiltration Total Heat Loss Energy [J] !Hourly
858,1,ROOM_747C74EA,Zone Infiltration Total Heat Gain Energy [J] !Hourly
859,1,ROOM_79360F7D,Zone Infiltration Total Heat Loss Energy [J] !Hourly
860,1,ROOM_79360F7D,Zone Infiltration Total Heat Gain Energy [J] !Hourly
861,1,ROOM_87384F97,Zone Infiltration Total Heat Loss Energy [J] !Hourly
862,1,ROOM_87384F97,Zone Infiltration Total Heat Gain Energy [J] !Hourly
863,1,ROOM_B487F70E,Zone Infiltration Total Heat Loss Energy [J] !Hourly
864,1,ROOM_B487F70E,Zone Infiltration Total Heat Gain Energy [J] !Hourly
865,1,ROOM_BB8DCF99,Zone Infiltration Total Heat Loss Energy [J] !Hourly
866,1,ROOM_BB8DCF99,Zone Infiltration Total Heat Gain Energy [J] !Hourly
867,1,ROOM_D19B0824,Zone Infiltration Total Heat Loss Energy [J] !Hourly
868,1,ROOM_D19B0824,Zone Infiltration Total Heat Gain Energy [J] !Hourly
869,1,ROOM_E01D97D5,Zone Infiltration Total Heat Loss Energy [J] !Hourly
870,1,ROOM_E01D97D5,Zone Infiltration Total Heat Gain Energy [J] !Hourly
871,1,ROOM_E24DDC74,Zone Infiltration Total Heat Loss Energy [J] !Hourly
872,1,ROOM_E24DDC74,Zone Infiltration Total Heat Gain Energy [J] !Hourly
1662,1,ROOM_0026B1D8 IDEAL LOADS AIR SYSTEM,Zone Ideal Loads Supply Air Total Heating Energy [J] !Hourly
1711,1,ROOM_0026B1D8 IDEAL LOADS AIR SYSTEM,Zone Ideal Loads Supply Air Total Cooling Energy [J] !Hourly
1760,1,ROOM_0026B1D8 IDEAL LOADS AIR SYSTEM,Zone Ideal Loads Zone Total Heating Energy [J] !Hourly
1761,1,ROOM_0026B1D8 IDEAL LOADS AIR SYSTEM,Zone Ideal Loads Zone Total Cooling Energy [J] !Hourly
1762,1,ROOM_0F418FD1 IDEAL LOADS AIR SYSTEM,Zone Ideal Loads Supply Air Total Heating Energy [J] !Hourly
1763,1,ROOM_0F418FD1 IDEAL LOADS AIR SYSTEM,Zone Ideal Loads Supply Air Total Cooling Energy [J] !Hourly
1764,1,ROOM_0F418FD1 IDEAL LOADS AIR SYSTEM,Zone Ideal Loads Zone Total Heating Energy [J] !Hourly
1765,1,ROOM_0F418FD1 IDEAL LOADS AIR SYSTEM,Zone Ideal Loads Zone Total Cooling Energy [J] !Hourly
1766,1,ROOM_16F92D8C IDEAL LOADS AIR SYSTEM,Zone Ideal Loads Supply Air Total Heating Energy [J] !Hourly
1767,1,ROOM_16F92D8C IDEAL LOADS AIR SYSTEM,Zone Ideal Loads Supply Air Total Cooling Energy [J] !Hourly
1768,1,ROOM_16F92D8C IDEAL LOADS AIR SYSTEM,Zone Ideal Loads Zone Total Heating Energy [J] !Hourly
1769,1,ROOM_16F92D8C IDEAL LOADS AIR SYSTEM,Zone Ideal Loads Zone Total Cooling Energy [J] !Hourly
1770,1,ROOM_3A9928F2 IDEAL LOADS AIR SYSTEM,Zone Ideal Loads Supply Air Total Heating Energy [J] !Hourly
1771,1,ROOM_3A9928F2 IDEAL LOADS AIR SYSTEM,Zone Ideal Loads Supply Air Total Cooling Energy [J] !Hourly
1772,1,ROOM_3A9928F2 IDEAL LOADS AIR SYSTEM,Zone Ideal Loads Zone Total Heating Energy [J] !Hourly
1773,1,ROOM_3A9928F2 IDEAL LOADS AIR SYSTEM,Zone Ideal Loads Zone Total Cooling Energy [J] !Hourly
1774,1,ROOM_592EF890 IDEAL LOADS AIR SYSTEM,Zone Ideal Loads Supply Air Total Heating Energy [J] !Hourly
1775,1,ROOM_592EF890 IDEAL LOADS AIR SYSTEM,Zone Ideal Loads Supply Air Total Cooling Energy [J] !Hourly
1776,1,ROOM_592EF890 IDEAL LOADS AIR SYSTEM,Zone Ideal Loads Zone Total Heating Energy [J] !Hourly
1777,1,ROOM_592EF890 IDEAL LOADS AIR SYSTEM,Zone Ideal Loads Zone Total Cooling Energy [J] !Hourly
1778,1,ROOM_59A8D732 IDEAL LOADS AIR SYSTEM,Zone Ideal Loads Supply Air Total Heating Energy [J] !Hourly
1779,1,ROOM_59A8D732 IDEAL LOADS AIR SYSTEM,Zone Ideal Loads Supply Air Total Cooling Energy [J] !Hourly
1780,1,ROOM_59A8D732 IDEAL LOADS AIR SYSTEM,Zone Ideal Loads Zone Total Heating Energy [J] !Hourly
1781,1,ROOM_59A8D732 IDEAL LOADS AIR SYSTEM,Zone Ideal Loads Zone Total Cooling Energy [J] !Hourly
1782,1,ROOM_6E9F8F31 IDEAL LOADS AIR SYSTEM,Zone Ideal Loads Supply Air Total Heating Energy [J] !Hourly
1783,1,ROOM_6E9F8F31 IDEAL LOADS AIR SYSTEM,Zone Ideal Loads Supply Air Total Cooling Energy [J] !Hourly
1784,1,ROOM_6E9F8F31 IDEAL LOADS AIR SYSTEM,Zone Ideal Loads Zone Total Heating Energy [J] !Hourly
1785,1,ROOM_6E9F8F31 IDEAL LOADS AIR SYSTEM,Zone Ideal Loads Zone Total Cooling Energy [J] !Hourly
1786,1,ROOM_747C74EA IDEAL LOADS AIR SYSTEM,Zone Ideal Loads Supply Air Total Heating Energy [J] !Hourly
1787,1,ROOM_747C74EA IDEAL LOADS AIR SYSTEM,Zone Ideal Loads Supply Air Total Cooling Energy [J] !Hourly
1788,1,ROOM_747C74EA IDEAL LOADS AIR SYSTEM,Zone Ideal Loads Zone Total Heating Energy [J] !Hourly
1789,1,ROOM_747C74EA IDEAL LOADS AIR SYSTEM,Zone Ideal Loads Zone Total Cooling Energy [J] !Hourly
1790,1,ROOM_79360F7D IDEAL LOADS AIR SYSTEM,Zone Ideal Loads Supply Air Total Heating Energy [J] !Hourly
1791,1,ROOM_79360F7D IDEAL LOADS AIR SYSTEM,Zone Ideal Loads Supply Air Total Cooling Energy [J] !Hourly
1792,1,ROOM_79360F7D IDEAL LOADS AIR SYSTEM,Zone Ideal Loads Zone Total Heating Energy [J] !Hourly
1793,1,ROOM_79360F7D IDEAL LOADS AIR SYSTEM,Zone Ideal Loads Zone Total Cooling Energy [J] !Hourly
1794,1,ROOM_87384F97 IDEAL LOADS AIR SYSTEM,Zone Ideal Loads Supply Air Total Heating Energy [J] !Hourly
1795,1,ROOM_87384F97 IDEAL LOADS AIR SYSTEM,Zone Ideal Loads Supply Air Total Cooling Energy [J] !Hourly
1796,1,ROOM_87384F97 IDEAL LOADS AIR SYSTEM,Zone Ideal Loads Zone Total Heating Energy [J] !Hourly
1797,1,ROOM_87384F97 IDEAL LOADS AIR SYSTEM,Zone Ideal Loads Zone Total Cooling Energy [J] !Hourly
1798,1,ROOM_B487F70E IDEAL LOADS AIR SYSTEM,Zone Ideal Loads Supply Air Total Heating Energy [J] !Hourly
1799,1,ROOM_B487F70E IDEAL LOADS AIR SYSTEM,Zone Ideal Loads Supply Air Total Cooling Energy [J] !Hourly
1800,1,ROOM_B487F70E IDEAL LOADS AIR SYSTEM,Zone Ideal Loads Zone Total Heating Energy [J] !Hourly
1801,1,ROOM_B487F70E IDEAL LOADS AIR SYSTEM,Zone Ideal Loads Zone Total Cooling Energy [J] !Hourly
1802,1,ROOM_BB8DCF99 IDEAL LOADS AIR SYSTEM,Zone Ideal Loads Supply Air Total Heating Energy [J] !Hourly
1803,1,ROOM_BB8DCF99 IDEAL LOADS AIR SYSTEM,Zone Ideal Loads Supply Air Total Cooling Energy [J] !Hourly
1804,1,ROOM_BB8DCF99 IDEAL LOADS AIR SYSTEM,Zone Ideal Loads Zone Total Heating Energy [J] !Hourly
1805,1,ROOM_BB8DCF99 IDEAL LOADS AIR SYSTEM,Zone Ideal Loads Zone Total Cooling Energy [J] !Hourly
1806,1,ROOM_D19B0824 IDEAL LOADS AIR SYSTEM,Zone Ideal Loads Supply Air Total Heating Energy [J] !Hourly
1807,1,ROOM_D19B0824 IDEAL LOADS AIR SYSTEM,Zone Ideal Loads Supply Air Total Cooling Energy [J] !Hourly
1808,1,ROOM_D19B0824 IDEAL LOADS AIR SYSTEM,Zone Ideal Loads Zone Total Heating Energy [J] !Hourly
1809,1,ROOM_D19B0824 IDEAL LOADS AIR SYSTEM,Zone Ideal Loads Zone Total Cooling Energy [J] !Hourly
1810,1,ROOM_E01D97D5 IDEAL LOADS AIR SYSTEM,Zone Ideal Loads Supply Air Total Heating Energy [J] !Hourly
1811,1,ROOM_E01D97D5 IDEAL LOADS AIR SYSTEM,Zone Ideal Loads Supply Air Total Cooling Energy [J] !Hourly
1812,1,ROOM_E01D97D5 IDEAL LOADS AIR SYSTEM,Zone Ideal Loads Zone Total Heating Energy [J] !Hourly
1813,1,ROOM_E01D97D5 IDEAL LOADS AIR SYSTEM,Zone Ideal Loads Zone Total Cooling Energy [J] !Hourly
1814,1,ROOM_E24DDC74 IDEAL LOADS AIR SYSTEM,Zone Ideal Loads Supply Air Total Heating Energy [J] !Hourly
1815,1,ROOM_E24DDC74 IDEAL LOADS AIR SYSTEM,Zone Ideal Loads Supply Air Total Cooling Energy [J] !Hourly
1816,1,ROOM_E24DDC74 IDEAL LOADS AIR SYSTEM,Zone Ideal Loads Zone Total Heating Energy [J] !Hourly
1817,1,ROOM_E24DDC74 IDEAL LOADS AIR SYSTEM,Zone Ideal Loads Zone Total Cooling Energy [J] !Hourly
End of Data Dictionary
1,RUN PERIOD 1,  42.37, -71.02,  -5.00,   6.00
2,1, 1, 1, 0, 1, 0.00,60.00,Sunday
7,0.0
8,0.0
9,0.0
10,0.0
11,0.0
12,0.0
13,0.0
14,0.0
15,0.0
16,0.0
17,0.0
18,0.0
19,0.0
20,0.0
21,0.0
664,0.0
665,0.0
666,0.0
667,0.0
668,0.0
669,0.0
670,0.0
671,0.0
672,0.0
673,0.0
674,0.0
675,0.0
676,0.0
677,0.0
678,0.0
679,0.0
680,245124.2796626288
681,0.0
682,256069.39357743148
683,0.0
684,363169.3816016903
685,0.0
686,163033.92456803315
687,0.0
688,149043.54500833827
689,0.0
690,119362.76156762659
691,0.0
692,224954.5509895683
693,0.0
694,142821.08389840689
695,0.0
696,469358.3593833181
697,0.0
698,423836.82238550906
699,0.0
700,365814.7991344288
701,0.0
702,134910.64822786576
703,0.0
704,187182.5790922061
705,0.0
706,137580.55035402094
707,0.0
708,160039.45776187624
709,0.0
710,257274.843025819
711,0.0
712,282405.5720938576
713,0.0
714,365475.53152799498
715,0.0
716,408131.03544406019
717,0.0
718,195428.0035433985
719,0.0
720,96843.79883525575
721,21041.736342351956
722,7442.173292594465
723,4868.172259731648
724,0.0
725,-109659.00527512818
726,0.0
727,-244197.2061992531
728,78215.17571698573
729,7864.293804587148
730,11995.62488282649
731,1982.157445766119
732,-7584.001948258877
733,-19982.12649659466
734,-7281.678039553255
735,-6149.074991645434
736,14284.954614845616
737,4316.357637267817
738,7577.14297358415
739,554.3366258154858
740,-12815.311562648865
741,-14.89786348544969
742,9600.17554050696
743,2625.1206368284108
744,14095.618498621097
745,19498.927431058743
746,-15295.592747405688
747,0.0
748,-161066.72303218477
749,0.0
750,-90310.58925721525
751,-5965.2083714344139
752,8374.481120818036
753,59436.28753346642
754,8398.165835959968
755,16756.471831300554
756,0.0
757,-104336.58444508449
758,0.0
759,-52217.67894407721
760,117.67268765878629
761,24478.15777470311
762,2544.333337179066
763,2031.170943358889
764,15973.025951906879
765,0.0
766,-413806.3498890921
767,0.0
768,-105695.10532919929
769,4862.407225585158
770,-16631.96998472719
771,182715.02947367615
772,29536.84776487745
773,51814.05519629313
774,0.0
775,-274625.0480174958
776,0.0
777,-188483.60622402055
778,11298.057379820213
779,110368.22245030654
780,13574.234994863844
781,0.0
782,-687423.146293868
783,0.0
784,-96116.46285396273
785,-15425.688756760532
786,-22962.47930478584
787,-4613.559928669766
788,12775.092717824395
789,228931.76011946437
790,33480.60554509695
791,25191.267681569927
792,-3594.1060102273906
793,0.0
794,-80198.67460394913
795,0.0
796,-62735.341323484114
797,22522.57332293799
798,3101.0391967632747
799,0.0
800,-149466.4275825518
801,11230.440102624689
802,9042.798752938854
803,-20506.788969813904
804,48599.142146970975
805,8826.912835204728
806,0.0
807,-476883.00523547557
808,23081.481577547624
809,-3660.846854830089
810,0.0
811,-268803.51664767917
812,237088.74051720877
813,36547.12909372096
814,0.0
815,-665224.043721511
816,-6403.976470184074
817,-2989.5886198730806
818,-6305.548489094446
819,-12308.406758533616
820,278596.766896988
821,45590.758381099906
822,0.0
823,-680844.9802161292
824,-6471.4600434314729
825,-22121.440413718654
826,-44885.92252306605
827,4031.9243164602887
828,280574.7835719796
829,44590.5688384939
830,20580.15890313611
831,4521.470418045953
832,0.0
833,-84219.54400037736
834,-7385.762754698851
835,13002.544359069434
836,1610.1268734347466
837,22675.863634176654
838,5029.415421805351
839,0.0
840,-41556.80622095302
841,1735.8964254043193
842,294.48965027467485
843,319702.9953734654
844,0.0
845,0.0
846,0.0
847,0.0
848,0.0
849,329960.66069389789
850,0.0
851,177214.63051248215
852,0.0
853,222918.0549416015
854,0.0
855,568164.6266780545
856,0.0
857,309504.61677111269
858,0.0
859,222984.18493259653
860,0.0
861,97467.71457115868
862,0.0
863,327647.5845190769
864,0.0
865,214683.45357660028
866,0.0
867,243902.5625934639
868,0.0
869,123723.7888118441
870,0.0