Program Version,EnergyPlus, Version 9.3.0-baff08990c, YMD=2021.04.24 20:47
1,5,Environment Title[],Latitude[deg],Longitude[deg],Time Zone[],Elevation[m]
2,8,Day of Simulation[],Month[],Day of Month[],DST Indicator[1=yes 0=no],Hour[],StartMinute[],EndMinute[],DayType
3,5,Cumulative Day of Simulation[],Month[],Day of Month[],DST Indicator[1=yes 0=no],DayType  ! When Daily Report Variables Requested
4,2,Cumulative Days of Simulation[],Month[]  ! When Monthly Report Variables Requested
5,1,Cumulative Days of Simulation[] ! When Run Period Report Variables Requested
6,1,Calendar Year of Simulation[] ! When Annual Report Variables Requested
7,1,ROOM_6B25DD81,Zone People Total Heating Energy [J] !Hourly
8,1,ROOM_6EBC3C8B,Zone People Total Heating Energy [J] !Hourly
9,1,ROOM_8E9F0581,Zone People Total Heating Energy [J] !Hourly
10,1,ROOM_AFCE1D5C,Zone People Total Heating Energy [J] !Hourly
235,1,ROOM_6B25DD81,Zone Windows Total Transmitted Solar Radiation Energy [J] !Hourly
236,1,ROOM_6EBC3C8B,Zone Windows Total Transmitted Solar Radiation Energy [J] !Hourly
237,1,ROOM_8E9F0581,Zone Windows Total Transmitted Solar Radiation Energy [J] !Hourly
238,1,ROOM_AFCE1D5C,Zone Windows Total Transmitted Solar Radiation Energy [J] !Hourly
239,1,ROOM_6B25DD81..FACE2_GLZ1,Surface Window Heat Gain Energy [J] !Hourly
240,1,ROOM_6B25DD81..FACE2_GLZ1,Surface Window Heat Loss Energy [J] !Hourly
241,1,ROOM_6B25DD81..FACE4_GLZ1,Surface Window Heat Gain Energy [J] !Hourly
242,1,ROOM_6B25DD81..FACE4_GLZ1,Surface Window Heat Loss Energy [J] !Hourly
243,1,ROOM_6EBC3C8B..FACE2_GLZ1,Surface Window Heat Gain Energy [J] !Hourly
244,1,ROOM_6EBC3C8B..FACE2_GLZ1,Surface Window Heat Loss Energy [J] !Hourly
245,1,ROOM_6EBC3C8B..FACE4_GLZ1,Surface Window Heat Gain Energy [J] !Hourly
246,1,ROOM_6EBC3C8B..FACE4_GLZ1,Surface Window Heat Loss Energy [J] !Hourly
247,1,ROOM_8E9F0581..FACE1_GLZ1,Surface Window Heat Gain Energy [J] !Hourly
248,1,ROOM_8E9F0581..FACE1_GLZ1,Surface Window Heat Loss Energy [J] !Hourly
249,1,ROOM_8E9F0581..FACE2_GLZ1,Surface Window Heat Gain Energy [J] !Hourly
250,1,ROOM_8E9F0581..FACE2_GLZ1,Surface Window Heat Loss Energy [J] !Hourly
251,1,ROOM_8E9F0581..FACE4_GLZ1,Surface Window Heat Gain Energy [J] !Hourly
252,1,ROOM_8E9F0581..FACE4_GLZ1,Surface Window Heat Loss Energy [J] !Hourly
253,1,ROOM_AFCE1D5C..FACE2_GLZ1,Surface Window Heat Gain Energy [J] !Hourly
254,1,ROOM_AFCE1D5C..FACE2_GLZ1,Surface Window Heat Loss Energy [J] !Hourly
255,1,ROOM_AFCE1D5C..FACE3_GLZ1,Surface Window Heat Gain Energy [J] !Hourly
256,1,ROOM_AFCE1D5C..FACE3_GLZ1,Surface Window Heat Loss Energy [J] !Hourly
257,1,ROOM_AFCE1D5C..FACE4_GLZ1,Surface Window Heat Gain Energy [J] !Hourly
258,1,ROOM_AFCE1D5C..FACE4_GLZ1,Surface Window Heat Loss Energy [J] !Hourly
259,1,ROOM_6B25DD81..FACE1,Surface Average Face Conduction Heat Transfer Energy [J] !Hourly
260,1,ROOM_6B25DD81..FACE2,Surface Outside Face Solar Radiation Heat Gain Energy [J] !Hourly
261,1,ROOM_6B25DD81..FACE2,Surface Average Face Conduction Heat Transfer Energy [J] !Hourly
262,1,ROOM_6B25DD81..FACE3,Surface Average Face Conduction Heat Transfer Energy [J] !Hourly
263,1,ROOM_6B25DD81..FACE4,Surface Outside Face Solar Radiation Heat Gain Energy [J] !Hourly
264,1,ROOM_6B25DD81..FACE4,Surface Average Face Conduction Heat Transfer Energy [J] !Hourly
265,1,ROOM_6B25DD81..FACE0,Surface Average Face Conduction Heat Transfer Energy [J] !Hourly
266,1,ROOM_6B25DD81..FACE5,Surface Average Face Conduction Heat Transfer Energy [J] !Hourly
267,1,ROOM_6EBC3C8B..FACE1,Surface Average Face Conduction Heat Transfer Energy [J] !Hourly
268,1,ROOM_6EBC3C8B..FACE2,Surface Outside Face Solar Radiation Heat Gain Energy [J] !Hourly
269,1,ROOM_6EBC3C8B..FACE2,Surface Average Face Conduction Heat Transfer Energy [J] !Hourly
270,1,ROOM_6EBC3C8B..FACE3,Surface Average Face Conduction Heat Transfer Energy [J] !Hourly
271,1,ROOM_6EBC3C8B..FACE4,Surface Outside Face Solar Radiation Heat Gain Energy [J] !Hourly
272,1,ROOM_6EBC3C8B..FACE4,Surface Average Face Conduction Heat Transfer Energy [J] !Hourly
273,1,ROOM_6EBC3C8B..FACE0,Surface Average Face Conduction Heat Transfer Energy [J] !Hourly
274,1,ROOM_6EBC3C8B..FACE5,Surface Average Face Conduction Heat Transfer Energy [J] !Hourly
275,1,ROOM_8E9F0581..FACE1,Surface Outside Face Solar Radiation Heat Gain Energy [J] !Hourly
276,1,ROOM_8E9F0581..FACE1,Surface Average Face Conduction Heat Transfer Energy [J] !Hourly
277,1,ROOM_8E9F0581..FACE2,Surface Outside Face Solar Radiation Heat Gain Energy [J] !Hourly
278,1,ROOM_8E9F0581..FACE2,Surface Average Face Conduction Heat Transfer Energy [J] !Hourly
279,1,ROOM_8E9F0581..FACE3,Surface Average Face Conduction Heat Transfer Energy [J] !Hourly
280,1,ROOM_8E9F0581..FACE4,Surface Outside Face Solar Radiation Heat Gain Energy [J] !Hourly
281,1,ROOM_8E9F0581..FACE4,Surface Average Face Conduction Heat Transfer Energy [J] !Hourly
282,1,ROOM_8E9F0581..FACE0,Surface Average Face Conduction Heat Transfer Energy [J] !Hourly
283,1,ROOM_8E9F0581..FACE5,Surface Average Face Conduction Heat Transfer Energy [J] !Hourly
284,1,ROOM_AFCE1D5C..FACE1,Surface Average Face Conduction Heat Transfer Energy [J] !Hourly
285,1,ROOM_AFCE1D5C..FACE2,Surface Outside Face Solar Radiation Heat Gain Energy [J] !Hourly
286,1,ROOM_AFCE1D5C..FACE2,Surface Average Face Conduction Heat Transfer Energy [J] !Hourly
287,1,ROOM_AFCE1D5C..FACE3,Surface Outside Face Solar Radiation Heat Gain Energy [J] !Hourly
288,1,ROOM_AFCE1D5C..FACE3,Surface Average Face Conduction Heat Transfer Energy [J] !Hourly
289,1,ROOM_AFCE1D5C..FACE4,Surface Outside Face Solar Radiation Heat Gain Energy [J] !Hourly
290,1,ROOM_AFCE1D5C..FACE4,Surface Average Face Conduction Heat Transfer Energy [J] !Hourly
291,1,ROOM_AFCE1D5C..FACE0,Surface Average Face Conduction Heat Transfer Energy [J] !Hourly
292,1,ROOM_AFCE1D5C..FACE5,Surface Average Face Conduction Heat Transfer Energy [J] !Hourly
293,1,ROOM_6B25DD81,Zone Infiltration Total Heat Loss Energy [J] !Hourly
294,1,ROOM_6B25DD81,Zone Infiltration Total Heat Gain Energy [J] !Hourly
295,1,ROOM_6EBC3C8B,Zone Infiltration Total Heat Loss Energy [J] !Hourly
296,1,ROOM_6EBC3C8B,Zone Infiltration Total Heat Gain Energy [J] !Hourly
297,1,ROOM_8E9F0581,Zone Infiltration Total Heat Loss Energy [J] !Hourly
298,1,ROOM_8E9F0581,Zone Infiltration Total Heat Gain Energy [J] !Hourly
299,1,ROOM_AFCE1D5C,Zone Infiltration Total Heat Loss Energy [J] !Hourly
300,1,ROOM_AFCE1D5C,Zone Infiltration Total Heat Gain Energy [J] !Hourly
672,1,ROOM_6B25DD81 IDEAL LOADS AIR SYSTEM,Zone Ideal Loads Supply Air Total Heating Energy [J] !Hourly
721,1,ROOM_6B25DD81 IDEAL LOADS AIR SYSTEM,Zone Ideal Loads Supply Air Total Cooling Energy [J] !Hourly
770,1,ROOM_6B25DD81 IDEAL LOADS AIR SYSTEM,Zone Ideal Loads Zone Total Heating Energy [J] !Hourly
771,1,ROOM_6B25DD81 IDEAL LOADS AIR SYSTEM,Zone Ideal Loads Zone Total Cooling Energy [J] !Hourly
772,1,ROOM_6EBC3C8B IDEAL LOADS AIR SYSTEM,Zone Ideal Loads Supply Air Total Heating Energy [J] !Hourly
773,1,ROOM_6EBC3C8B IDEAL LOADS AIR SYSTEM,Zone Ideal Loads Supply Air Total Cooling Energy [J] !Hourly
774,1,ROOM_6EBC3C8B IDEAL LOADS AIR SYSTEM,Zone Ideal Loads Zone Total Heating Energy [J] !Hourly
775,1,ROOM_6EBC3C8B IDEAL LOADS AIR SYSTEM,Zone Ideal Loads Zone Total Cooling Energy [J] !Hourly
776,1,ROOM_8E9F0581 IDEAL LOADS AIR SYSTEM,Zone Ideal Loads Supply Air Total Heating Energy [J] !Hourly
777,1,ROOM_8E9F0581 IDEAL LOADS AIR SYSTEM,Zone Ideal Loads Supply Air Total Cooling Energy [J] !Hourly
778,1,ROOM_8E9F0581 IDEAL LOADS AIR SYSTEM,Zone Ideal Loads Zone Total Heating Energy [J] !Hourly
779,1,ROOM_8E9F0581 IDEAL LOADS AIR SYSTEM,Zone Ideal Loads Zone Total Cooling Energy [J] !Hourly
780,1,ROOM_AFCE1D5C IDEAL LOADS AIR SYSTEM,Zone Ideal Loads Supply Air Total Heating Energy [J] !Hourly
781,1,ROOM_AFCE1D5C IDEAL LOADS AIR SYSTEM,Zone Ideal Loads Supply Air Total Cooling Energy [J] !Hourly
782,1,ROOM_AFCE1D5C IDEAL LOADS AIR SYSTEM,Zone Ideal Loads Zone Total Heating Energy [J] !Hourly
783,1,ROOM_AFCE1D5C IDEAL LOADS AIR SYSTEM,Zone Ideal Loads Zone Total Cooling Energy [J] !Hourly
End of Data Dictionary
1,RUN PERIOD 1,  42.37, -71.02,  -5.00,   6.00
2,1, 1, 1, 0, 1, 0.00,60.00,Sunday
7,0.0
8,0.0
9,0.0
10,0.0
235,0.0
236,0.0
237,0.0
238,0.0
239,0.0
240,275035.8559959913
241,0.0
242,275094.60099903526
243,0.0
244,283926.7420407752
245,0.0
246,283984.87925252158
247,0.0
248,297711.04774835999
249,0.0
250,35866.26542631365
251,0.0
252,35882.580462510945
253,0.0
254,193030.3984791591
255,0.0
256,284128.1958309623
257,0.0
258,193069.42876028183
259,-6881.297666249042
260,0.0
261,-189810.16468476293
262,-6233.078467194976
263,0.0
264,-262253.0626308619
265,153081.93062494239
266,25325.27423954161
267,7508.707863188362
268,0.0
269,-194132.57946056513
270,-23437.95971819961
271,0.0
272,-270458.0747751118
273,121081.29382132062
274,14523.478820704615
275,0.0
276,-573276.9866660759
277,0.0
278,-27184.451547402798
279,13336.182837843317
280,0.0
281,-36560.50366761788
282,111293.73837245214
283,12004.602074472667
284,18616.367637680465
285,0.0
286,-133497.2842865085
287,0.0
288,-129017.5176157871
289,0.0
290,-187204.40924950507
291,85958.0843889978
292,7098.990140568831
293,345316.42331590488
294,0.0
295,360522.22341529009
296,0.0
297,237862.15416176016
298,0.0
299,441975.8688023098
300,0.0
672,1288324.179294725
721,0.0
770,753461.5165771666
771,0.0
772,1449101.9712269626
773,0.0
774,890686.9714359897
775,0.0
776,487545.56705244266
777,0.0
778,415770.76556881898
779,0.0
780,1613521.6721753427
781,0.0
782,1219533.7665805682
783,0.0
2,1, 1, 1, 0, 2, 0.00,60.00,Sunday
7,0.0
8,0.0
9,0.0
10,0.0
235,0.0
236,0.0
237,0.0
238,0.0
239,0.0
240,213739.61770847222
241,0.0
242,213594.67008098094
243,0.0
244,220332.08890398756
245,0.0
246,220181.8247639958
247,0.0
248,231367.84444743739
249,0.0
250,27853.26175577863
251,0.0
252,27843.14260948533
253,0.0
254,149075.56871566233
255,0.0
256,219288.55284505402
257,0.0
258,148982.1854745771
259,-9015.304163803125
260,0.0
261,85216.99215514632
262,-6230.745520408449
263,0.0
264,18688.88280491288
265,126645.12098875207
266,17343.886987866692
267,5875.571848530541
268,0.0
269,93037.74924516886
270,-21803.99847904713
271,0.0
272,22919.7788970295
273,94798.58649485609
274,8634.19192074148
275,0.0
276,-244622.60057437863
277,0.0
278,9024.509181248739
279,11628.272040456506
280,0.0
281,431.5036066101652
282,90764.15820925389
283,8290.923835544092
284,17136.35620480465
285,0.0
286,68375.13353055064
287,0.0
288,158370.32314756138
289,0.0
290,19016.70075587091
291,61355.28451408455
292,2300.6068711241916
293,265108.7705624625
294,0.0
295,276782.6959786598
296,0.0
297,191563.28093419315
298,0.0
299,345483.7943497268
300,0.0
672,1052669.4053244855
721,0.0
770,636485.6937278103
771,0.0
772,1190648.7808244792
773,0.0
774,756138.6445596037
775,0.0
776,410970.94316067898
777,0.0
778,351608.5870749713
779,0.0
780,1343980.6764690516
781,0.0
782,1031062.8752092656
783,0.0
2,1, 1, 1, 0, 3, 0.00,60.00,Sunday
7,0.0
8,0.0
9,0.0
10,0.0
235,0.0
236,0.0
237,0.0
238,0.0
239,0.0
240,218551.42596680445
241,0.0
242,218445.06584048295
243,0.0
244,225656.23276673293
245,0.0
246,225545.29834361445
247,0.0
248,235864.36866968004
249,0.0
250,28399.03921879938
251,0.0
252,28393.05207296564
253,0.0
254,152886.84929816257
255,0.0
256,224911.1021828141
257,0.0
258,152818.44503088378
259,-7387.181357891513
260,0.0
261,-21718.932181285265
262,-2492.924504059876
263,0.0
264,-83159.48066007643
265,116516.8267466955
266,15258.131788744315
267,8130.710972046908
268,0.0
269,-18756.27885366613
270,-17601.53983604171
271,0.0
272,-83486.4900944088
273,86285.7350622449
274,8241.718724141108
275,0.0
276,-334156.8090689127
277,0.0
278,-4669.182217027902
279,18464.18152187183
280,0.0
281,-12619.963180214836
282,76545.49980500863
283,6451.725719910947
284,21127.58199557919
285,0.0
286,-9309.493701814165
287,0.0
288,40147.06383707448
289,0.0
290,-54862.18506377003
291,55430.98179612137
292,2903.393558797695
293,293716.25321783949
294,0.0
295,306649.9075485026
296,0.0
297,203727.3009624728
298,0.0
299,379241.3098151735
300,0.0
672,1103324.9467626808
721,0.0
770,634841.8819965334
771,0.0
772,1234148.8861974052
773,0.0
774,745036.3965377043
775,0.0
776,451876.8095110004
777,0.0
778,387640.07062644339
779,0.0
780,1379549.1595933536
781,0.0
782,1029950.2535666133
783,0.0
2,1, 1, 1, 0, 4, 0.00,60.00,Sunday
7,0.0
8,0.0
9,0.0
10,0.0
235,0.0
236,0.0
237,0.0
238,0.0
239,0.0
240,220986.84078080694
241,0.0
242,220981.4844991165
243,0.0
244,228519.17065750954
245,0.0
246,228511.87036913719
247,0.0
248,237720.86715382618
249,0.0
250,28615.407906880682
251,0.0
252,28621.28892464849
253,0.0
254,154955.56201995145
255,0.0
256,227972.46806482157
257,0.0
258,154954.47171740116
259,-9305.511150669005
260,0.0
261,-75586.09579579326
262,-1442.612076830967
263,0.0
264,-131170.60720186789
265,107689.69221862724
266,13789.644179302342
267,7832.728943048736
268,0.0
269,-75263.41814179305
270,-16845.886339980498
271,0.0
272,-133802.6695747823
273,79304.10900590103
274,8046.355520807363
275,0.0
276,-363698.19954181948
277,0.0
278,-11506.051690725359
279,20740.2437478259
280,0.0
281,-18712.524272211103
282,65114.40472671976
283,5156.25419080449
284,21489.017279744647
285,0.0
286,-48897.25103158457
287,0.0
288,-22744.842461839384
289,0.0
290,-90080.25934974355
291,50650.25949331655
292,3402.234383280647
293,306715.1682498989
294,0.0
295,320221.22803606677
296,0.0
297,208136.23274432083
298,0.0
299,392804.31347918839
300,0.0
672,1152198.1737112662
721,0.0
770,660589.5367189812
771,0.0
772,1276056.3639698369
773,0.0
774,762799.9700482892
775,0.0
776,490876.1161544237
777,0.0
778,425159.74955372748
779,0.0
780,1415468.4672289959
781,0.0
782,1051871.8462365668
783,0.0
2,1, 1, 1, 0, 5, 0.00,60.00,Sunday
7,0.0
8,0.0
9,0.0
10,0.0
235,0.0
236,0.0
237,0.0
238,0.0
239,0.0
240,219958.3083329404
241,0.0
242,220036.0751200765
243,0.0
244,227714.5101879207
245,0.0
246,227792.94781250516
247,0.0
248,236056.03881551384
249,0.0
250,28409.53814532269
251,0.0
252,28425.10741588236
253,0.0
254,154487.98151552279
255,0.0
256,227273.47059313785
257,0.0
258,154542.91934476258
259,-11720.34352720021
260,0.0
261,-92961.53151473384
262,-1212.03357839647
263,0.0
264,-143235.27039468688
265,98464.97888696219
266,12290.88218056004
267,6862.023771792999
268,0.0
269,-93669.45489604275
270,-16892.121065150728
271,0.0
272,-146602.88563289203
273,72011.46020685173
274,7517.0976206941299
275,0.0
276,-356038.2244907376
277,0.0
278,-13605.895036756096
279,21460.664691862083
280,0.0
281,-20131.135324619423
282,55581.75730904012
283,4131.423708677658
284,20861.50196537592
285,0.0
286,-61885.65788530446
287,0.0
288,-46568.209177535005
289,0.0
290,-99116.58895714698
291,45327.05804872219
292,3394.4767223802875
293,312102.89828491726
294,0.0
295,325846.2058135809
296,0.0
297,209485.54964325205
298,0.0
299,397777.730551195
300,0.0
672,1181113.0242298977
721,0.0
770,681703.0006575623
771,2590.7519247418179
772,1297376.8161243757
773,0.0
774,775978.8836261585
775,2708.215907624742
776,518248.13172347468
777,0.0
778,452493.44749602829
779,565.9955574429802
780,1430734.3735331363
781,0.0
782,1064165.1771347197
783,2784.062163206056
2,1, 1, 1, 0, 6, 0.00,60.00,Sunday
7,0.0
8,0.0
9,0.0
10,0.0
235,0.0
236,0.0
237,0.0
238,0.0
239,0.0
240,220076.52300524186
241,0.0
242,219961.01738771954
243,0.0
244,228059.93638693103
245,0.0
246,227939.4131794034
247,0.0
248,235394.3074166636
249,0.0
250,28362.430982551698
251,0.0
252,28353.54838581782
253,0.0
254,154776.76168624327
255,0.0
256,227690.05956647319
257,0.0
258,154700.79224759458
259,-13686.848940855803
260,0.0
261,-98807.89790422148
262,-1019.3334273707168
263,0.0
264,-147694.23415746555
265,89655.20388744201
266,10913.125638799142
267,6006.547595105226
268,0.0
269,-99842.53397724219
270,-16871.931785080185
271,0.0
272,-151335.35801923075
273,65216.053282143665
274,6910.951934281806
275,0.0
276,-349647.53878689548
277,0.0
278,-14297.568790452959
279,22008.116674097073
280,0.0
281,-20627.083350882003
282,47707.19785446545
283,3330.8967695506328
284,20339.69147880076
285,0.0
286,-66152.6150010843
287,0.0
288,-54838.80383120748
289,0.0
290,-102387.37673431394
291,40452.201698959725
292,3232.3700923562676
293,312750.3473858515
294,0.0
295,326522.1655871261
296,0.0
297,208786.93858087017
298,0.0
299,397486.93889008599
300,0.0
672,1207551.7515963296
721,0.0
770,707664.950833672
771,3492.7052535923965
772,1316770.7981581372
773,0.0
774,794875.8680600036
775,3650.661648927593
776,541187.357053543
777,0.0
778,475431.9523920575
779,283.6379567135964
780,1444204.5720945667
781,0.0
782,1077640.0270209932
783,2578.6222238773805
2,1, 1, 1, 0, 7, 0.00,60.00,Sunday
7,21938.494105116006
8,22904.545659516014
9,2885.8106711160014
10,16088.515247916002
235,0.0
236,0.0
237,0.0
238,0.0
239,0.0
240,224511.67903822696
241,0.0
242,224459.78391866829
243,0.0
244,232862.24635110593
245,0.0
246,232807.32072895469
247,0.0
248,239733.480573937
249,0.0
250,28936.584371605524
251,0.0
252,28935.143941660925
253,0.0
254,158192.1484733689
255,0.0
256,232701.3313056862
257,0.0
258,158158.91535606094
259,-16130.986005211711
260,0.0
261,-130629.89797739084
262,-1510.5894171331054
263,0.0
264,-177797.8452750219
265,79350.23955270197
266,8951.11882695358
267,4579.299581079638
268,0.0
269,-133113.68555037894
270,-17545.9917621662
271,0.0
272,-182776.5030951139
273,56801.72114022796
274,5528.655058387883
275,0.0
276,-372325.9175698788
277,0.0
278,-18342.23238074855
279,22939.05849333714
280,0.0
281,-24462.76257642103
282,41291.39903730564
283,2723.0601407412225
284,19541.02882726243
285,0.0
286,-89289.55721896932
287,0.0
288,-90263.47874622859
289,0.0
290,-124221.82051152873
291,35093.83221286453
292,2673.264319853659
293,318439.810994062
294,0.0
295,332462.1623211559
296,0.0
297,212786.65778496472
298,0.0
299,404598.7838897772
300,0.0
672,1216222.9510531636
721,0.0
770,706232.4557072861
771,1013.9696049950942
772,1318150.4476689476
773,0.0
774,785703.7947529338
775,1059.659726310548
776,563959.2302477514
777,0.0
778,496882.98422392786
779,4.947349727706296
780,1450347.6221166678
781,0.0
782,1076350.1361880252
783,534.8059489320235
2,1, 1, 1, 0, 8, 0.00,60.00,Sunday
7,21938.494105116006
8,22904.545659516014
9,2885.8106711160014
10,16088.515247916002
235,113748.92873287159
236,118531.92317608888
237,89221.293957176
238,117986.50592774595
239,5177.525481506579
240,129795.1713930177
241,0.0
242,189399.27036657107
243,5579.59587223141
244,134447.43849943119
245,0.0
246,196556.89026679914
247,0.0
248,150485.9905537646
249,819.1271344736666
250,16464.312408773574
251,0.0
252,24175.793540283128
253,4903.620296207202
254,89807.05124791335
255,0.0
256,194827.9604081243
257,0.0
258,132473.48144256764
259,-23415.511882686566
260,375432.6398651102
261,-32801.746215837484
262,-7578.609900297653
263,148389.03268168588
264,-158083.27840233566
265,43949.29020251378
266,3422.70111891942
267,-2286.999268215888
268,391529.7046438951
269,-31373.27028833367
270,-23631.032357354266
271,154273.67535208917
272,-162533.2845372255
273,22066.04628555311
274,335.649096040102
275,343524.8014749357
276,-273282.515058448
277,49594.15680434408
278,-5964.950090774204
279,6542.6889097955349
280,19773.156640139692
281,-22345.29947978858
282,24916.626368012996
283,1077.0844645585899
284,10900.148592521973
285,275645.39911460896
286,-18591.446395748982
287,160869.19717761986
288,-75569.2920444396
289,108981.69031089123
290,-110629.31447905668
291,6800.902843867286
292,-1488.1488149497157
293,326383.59051373126
294,0.0
295,340755.7426105347
296,0.0
297,217654.98876135995
298,0.0
299,414444.1891383009
300,0.0
672,1223350.696429487
721,0.0
770,706317.6739791948
771,6457.372051054552
772,1318517.4432527072
773,0.0
774,778722.6176352067
775,6747.228910501905
776,562941.1458943095
777,0.0
778,494933.3624708501
779,637.6389258799009
780,1444195.799336457
781,0.0
782,1065070.8220553455
783,4417.266919848442
2,1, 1, 1, 0, 9, 0.00,60.00,Sunday
7,21938.494105116006
8,22904.545659516014
9,2885.8106711160014
10,16088.515247916002
235,686939.3518488627
236,714445.5447148822
237,721662.047660665
238,637674.4758629559
239,486969.64362045857
240,0.0
241,0.0
242,74110.9511490534
243,509342.3198885572
244,0.0
245,0.0
246,79180.45900372464
247,548912.6396042236
248,0.0
249,64551.090822313854
250,0.0
251,0.0
252,8716.82322877698
253,364136.73942941709
254,0.0
255,0.0
256,70048.70802430365
257,0.0
258,50195.890931537295
259,-37063.34112310145
260,2549315.2984129118
261,673103.8643131099
262,-30758.463887351685
263,582373.3695407055
264,-51563.1596460469
265,-137897.29154400916
266,-20128.02144932219
267,-25099.43513426792
268,2659954.30058313
269,705515.1497833254
270,-44235.14015421226
271,594036.036657711
272,-55993.0405022219
273,-163009.84101251199
274,-22810.358579560332
275,2854428.129135174
276,560978.3323794309
277,336119.1367876479
278,83267.95643929242
279,-80356.3874763905
280,79540.53583641268
281,-10909.526779486749
282,-111892.08657808033
283,-6905.441195155128
284,-15029.971433821689
285,1870730.2245242778
286,498263.6018925771
287,632753.4893326713
288,26216.308414228923
289,419694.7905107444
290,-36365.83992507567
291,-132079.2398168529
292,-18393.200789494203
293,326891.7645243548
294,0.0
295,341286.29385725277
296,0.0
297,217392.05599727718
298,0.0
299,414633.576108177
300,0.0
672,1064878.6145799556
721,0.0
770,547880.0988435124
771,6604.651092650306
772,1150859.8041694058
773,0.0
774,611100.9223625495
775,6900.910976617422
776,383885.46622477806
777,0.0
778,315878.4601166574
779,406.2461982558681
780,1273579.7465776415
781,0.0
782,894480.7902206584
783,4037.6579296178194
2,1, 1, 1, 0,10, 0.00,60.00,Sunday
7,21938.494105116006
8,22904.545659516014
9,2885.8106711160014
10,16088.515247916002
235,1524926.129073262
236,1579464.5520699388
237,2252517.2444018868
238,1339083.9363524074
239,1430315.8543073985
240,0.0
241,29135.980369061574
242,5346.157002783505
243,1494842.6608311197
244,0.0
245,20610.337356017168
246,9184.407174788092
247,2277643.3023810025
248,0.0
249,184663.76397529298
250,0.0
251,2557.515443856414
252,399.90524311261125
253,1057197.6438265714
254,0.0
255,30834.442754485437
256,3596.275973201156
257,17832.108534560495
258,5103.813084962023
259,-6791.295427715532
260,5993002.463346714
261,1461761.0430312665
262,-54945.64845540019
263,1020528.6795366558
264,-34675.794112917494
265,-412712.2932419298
266,-59471.81937085326
267,-42778.62299097762
268,6254469.975931156
269,1532084.9215821624
270,-60841.276711921564
271,1011849.5175795355
272,-46424.54698543761
273,-435131.1895022043
274,-56710.32436146009
275,9111317.077739949
276,2169850.535497721
277,789497.153971757
278,177052.4652409786
279,-267449.19595195146
280,145366.44253658548
281,-16279.328949876088
282,-442581.2582867152
283,-28481.515495751213
284,-31743.813994189037
285,4396740.373874738
286,1080008.0386401606
287,1072895.223336915
288,31625.621591676845
289,712334.2613765908
290,-29191.63408134475
291,-325592.70000411037
292,-39655.044392327225
293,339707.56595373895
294,0.0
295,354666.4332495937
296,0.0
297,243853.53009632996
298,0.0
299,430566.4234489009
300,0.0
672,750360.6188827414
721,0.0
770,221411.38471843516
771,13750.111347779868
772,854262.3668922909
773,0.0
774,302043.0000688399
775,14377.496154666125
776,10616.410385641797
777,0.0
778,0.0
779,65028.17119497017
780,999428.8874399313
781,0.0
782,611634.8691940772
783,9070.243212903535
2,1, 1, 1, 0,11, 0.00,60.00,Sunday
7,21938.494105116006
8,22904.545659516014
9,2885.8106711160014
10,16088.515247916002
235,1059418.1229134219
236,1095274.5437655822
237,2106810.5473071087
238,1089665.317135868
239,736159.6909497543
240,0.0
241,144086.9543673962
242,0.0
243,772308.5221610271
244,0.0
245,141854.07786171497
246,0.0
247,2134037.795233284
248,0.0
249,89665.63423676184
250,0.0
251,13064.168544900473
252,0.0
253,550440.5252777219
254,0.0
255,145710.1630287536
256,0.0
257,106350.72874531252
258,0.0
259,111226.12330335214
260,3793291.1539974806
261,516326.29186952867
262,-27939.10568989696
263,1442153.0421189857
264,137048.53515054479
265,-226073.41217179507
266,-56759.73595845049
267,-7085.023648419359
268,3956494.537565794
269,547041.9892903254
270,-27518.071537466116
271,1458119.6346456842
272,139872.8561825194
273,-218153.98235773724
274,-46976.19121096171
275,8755256.020182966
276,1654260.02862694
277,500818.2596884847
278,53527.21527810152
279,-277820.0576527888
280,197584.56656731454
281,4875.018852922787
282,-314331.14921877669
283,-34390.40525662263
284,-7614.14709744544
285,2784643.480579351
286,386508.6109094
287,1473275.8077612469
288,192266.27557127313
289,1027833.3894613232
290,99899.39734208318
291,-188799.286420371
292,-35502.28848566515
293,329743.34760755757
294,0.0
295,344263.44510936809
296,0.0
297,264579.3163982891
298,0.0
299,417173.2624485578
300,0.0
672,574074.2208169703
721,0.0
770,59234.25037403268
771,12789.065242600223
772,759082.619226434
773,0.0
774,221024.81149863127
775,12805.131229203602
776,0.0
777,0.0
778,0.0
779,82172.28421678786
780,876641.6540803039
781,0.0
782,498764.4529410729
783,7203.740355245409
2,1, 1, 1, 0,12, 0.00,60.00,Sunday
7,21938.494105116006
8,22904.545659516014
9,2885.8106711160014
10,16088.515247916002
235,727634.0856110652
236,752064.5740444494
237,3153506.3359467398
238,824407.7026791794
239,296121.6774608407
240,0.0
241,169049.94934622415
242,0.0
243,314528.6539195902
244,0.0
245,174243.1287004489
246,0.0
247,3455426.9409610608
248,0.0
249,24264.044676131725
250,0.0
251,8175.311766810256
252,0.0
253,227551.92246500156
254,0.0
255,125157.39224235359
256,0.0
257,128711.65634833403
258,0.0
259,220673.6838151753
260,2388942.5016074406
261,92426.87141773489
262,-16406.835094335544
263,1550201.1261036606
264,188007.4595698219
265,-130367.65132304089
266,-44448.633517646056
267,14339.600333228102
268,2489014.3842725346
269,105944.53487210078
270,-7217.157111329935
271,1579473.2885707836
272,199754.51479954559
273,-97219.3484802279
274,-28169.666374754328
275,13449809.869184852
276,2955274.2121547234
277,315681.4907173003
278,-11786.475039617962
279,-461551.3102257015
280,208832.86844650607
281,967.6986133809751
282,-581386.7385751067
283,-50086.07209021924
284,12522.386555881734
285,1752504.710045666
286,77846.97419061065
287,1344620.2788679063
288,156573.4519153104
289,1112966.23921647
290,143407.5271167434
291,-98130.59612723347
292,-22191.176640908037
293,313509.05089019666
294,0.0
295,327314.2785622927
296,0.0
297,309989.95022326827
298,0.0
299,397218.0614655532
300,0.0
672,462721.7237540669
721,0.0
770,626.3361801349026
771,39238.37579812194
772,740443.5676293972
773,0.0
774,219413.8443201609
775,2380.043046951481
776,0.0
777,0.0
778,241.67679190936227
779,96057.16421189194
780,844527.5881932854
781,0.0
782,479040.4142458497
783,828.3515431879579
2,1, 1, 1, 0,13, 0.00,60.00,Sunday
7,21938.494105116006
8,22904.545659516014
9,2885.8106711160014
10,16088.515247916002
235,863134.9762973627
236,888317.8590710934
237,3274562.0766794395
238,878037.6564762592
239,110609.12748029383
240,0.0
241,563045.4841786687
242,0.0
243,108923.85634980834
244,0.0
245,596981.4869695027
246,0.0
247,3530507.154248734
248,0.0
249,0.0
250,5650.068312375974
251,52632.26652465845
252,0.0
253,81818.00449486391
254,0.0
255,76872.8744432301
256,0.0
257,425877.2695841594
258,0.0
259,332552.9057776177
260,1291390.2686267757
261,-196307.83752423945
262,-36433.248888239905
263,3591187.069007196
264,887208.3901699869
265,-210369.46635079117
266,-51732.48130699439
267,8253.905927632399
268,1293060.0464892192
269,-209337.10712432274
270,-18675.612999018507
271,3747006.519617501
272,945384.5884862277
273,-154898.13755251689
274,-28885.558838573692
275,13869614.245176362
276,2532256.1468038547
277,177754.26867407337
278,-45595.79393067997
279,-535671.9377336066
280,473503.94169199306
281,93431.65854613614
282,-546711.9166962607
283,-55219.27176360171
284,5104.009673146649
285,909774.3439795622
286,-142481.08136276445
287,1157054.5085040865
288,88214.14054970673
289,2635301.652847425
290,668957.2607675867
291,-126649.54687341316
292,-19589.355835823346
293,299946.499855193
294,0.0
295,313154.50679599746
296,0.0
297,348562.3367996702
298,0.0
299,380750.95129843035
300,0.0
672,245088.26500204119
721,0.0
770,108.23836414020605
771,235865.07447930796
772,659123.5616946892
773,0.0
774,160642.85985942343
775,3538.193395373792
776,0.0
777,1.675147022234519
778,10.933405904208727
779,118075.99978206116
780,787488.1335280133
781,0.0
782,437481.8219910955
783,2083.5156573026144
2,1, 1, 1, 0,14, 0.00,60.00,Sunday
7,21938.494105116006
8,22904.545659516014
9,2885.8106711160014
10,16088.515247916002
235,1468973.4776011478
236,1515328.7596221236
237,2951536.6922333787
238,1287482.9452264913
239,39620.09523626798
240,0.0
241,1386491.3187949628
242,0.0