Program Version,EnergyPlus, Version 9.3.0-baff08990c, YMD=2021.04.24 21:17
1,5,Environment Title[],Latitude[deg],Longitude[deg],Time Zone[],Elevation[m]
2,8,Day of Simulation[],Month[],Day of Month[],DST Indicator[1=yes 0=no],Hour[],StartMinute[],EndMinute[],DayType
3,5,Cumulative Day of Simulation[],Month[],Day of Month[],DST Indicator[1=yes 0=no],DayType  ! When Daily Report Variables Requested
4,2,Cumulative Days of Simulation[],Month[]  ! When Monthly Report Variables Requested
5,1,Cumulative Days of Simulation[] ! When Run Period Report Variables Requested
6,1,Calendar Year of Simulation[] ! When Annual Report Variables Requested
7,1,ROOM_0F2955AD,Zone People Total Heating Energy [J] !Hourly
8,1,ROOM_167A649D,Zone People Total Heating Energy [J] !Hourly
9,1,ROOM_21ED5075,Zone People Total Heating Energy [J] !Hourly
10,1,ROOM_32F964D5,Zone People Total Heating Energy [J] !Hourly
11,1,ROOM_4742F51F,Zone People Total Heating Energy [J] !Hourly
12,1,ROOM_4C2D24B9,Zone People Total Heating Energy [J] !Hourly
13,1,ROOM_4F9EE72E,Zone People Total Heating Energy [J] !Hourly
14,1,ROOM_B1FA130A,Zone People Total Heating Energy [J] !Hourly
15,1,ROOM_B33EAB3D,Zone People Total Heating Energy [J] !Hourly
16,1,ROOM_BE96053F,Zone People Total Heating Energy [J] !Hourly
17,1,ROOM_C1230868,Zone People Total Heating Energy [J] !Hourly
18,1,ROOM_C466F578,Zone People Total Heating Energy [J] !Hourly
19,1,ROOM_D8482C34,Zone People Total Heating Energy [J] !Hourly
586,1,ROOM_0F2955AD,Zone Windows Total Transmitted Solar Radiation Energy [J] !Hourly
587,1,ROOM_167A649D,Zone Windows Total Transmitted Solar Radiation Energy [J] !Hourly
588,1,ROOM_21ED5075,Zone Windows Total Transmitted Solar Radiation Energy [J] !Hourly
589,1,ROOM_32F964D5,Zone Windows Total Transmitted Solar Radiation Energy [J] !Hourly
590,1,ROOM_4742F51F,Zone Windows Total Transmitted Solar Radiation Energy [J] !Hourly
591,1,ROOM_4C2D24B9,Zone Windows Total Transmitted Solar Radiation Energy [J] !Hourly
592,1,ROOM_4F9EE72E,Zone Windows Total Transmitted Solar Radiation Energy [J] !Hourly
593,1,ROOM_B1FA130A,Zone Windows Total Transmitted Solar Radiation Energy [J] !Hourly
594,1,ROOM_B33EAB3D,Zone Windows Total Transmitted Solar Radiation Energy [J] !Hourly
595,1,ROOM_BE96053F,Zone Windows Total Transmitted Solar Radiation Energy [J] !Hourly
596,1,ROOM_C1230868,Zone Windows Total Transmitted Solar Radiation Energy [J] !Hourly
597,1,ROOM_C466F578,Zone Windows Total Transmitted Solar Radiation Energy [J] !Hourly
598,1,ROOM_D8482C34,Zone Windows Total Transmitted Solar Radiation Energy [J] !Hourly
599,1,ROOM_0F2955AD..FACE2_GLZ1,Surface Window Heat Gain Energy [J] !Hourly
600,1,ROOM_0F2955AD..FACE2_GLZ1,Surface Window Heat Loss Energy [J] !Hourly
601,1,ROOM_0F2955AD..FACE3_GLZ1,Surface Window Heat Gain Energy [J] !Hourly
602,1,ROOM_0F2955AD..FACE3_GLZ1,Surface Window Heat Loss Energy [J] !Hourly
603,1,ROOM_167A649D..FACE1_GLZ1,Surface Window Heat Gain Energy [J] !Hourly
604,1,ROOM_167A649D..FACE1_GLZ1,Surface Window Heat Loss Energy [J] !Hourly
605,1,ROOM_167A649D..FACE2_GLZ1,Surface Window Heat Gain Energy [J] !Hourly
606,1,ROOM_167A649D..FACE2_GLZ1,Surface Window Heat Loss Energy [J] !Hourly
607,1,ROOM_167A649D..FACE3_GLZ1,Surface Window Heat Gain Energy [J] !Hourly
608,1,ROOM_167A649D..FACE3_GLZ1,Surface Window Heat Loss Energy [J] !Hourly
609,1,ROOM_21ED5075..FACE1_GLZ1,Surface Window Heat Gain Energy [J] !Hourly
610,1,ROOM_21ED5075..FACE1_GLZ1,Surface Window Heat Loss Energy [J] !Hourly
611,1,ROOM_21ED5075..FACE2_GLZ1,Surface Window Heat Gain Energy [J] !Hourly
612,1,ROOM_21ED5075..FACE2_GLZ1,Surface Window Heat Loss Energy [J] !Hourly
613,1,ROOM_21ED5075..FACE3_GLZ1,Surface Window Heat Gain Energy [J] !Hourly
614,1,ROOM_21ED5075..FACE3_GLZ1,Surface Window Heat Loss Energy [J] !Hourly
615,1,ROOM_21ED5075..FACE4_GLZ1,Surface Window Heat Gain Energy [J] !Hourly
616,1,ROOM_21ED5075..FACE4_GLZ1,Surface Window Heat Loss Energy [J] !Hourly
617,1,ROOM_32F964D5..FACE1_GLZ1,Surface Window Heat Gain Energy [J] !Hourly
618,1,ROOM_32F964D5..FACE1_GLZ1,Surface Window Heat Loss Energy [J] !Hourly
619,1,ROOM_4742F51F..FACE3_GLZ1,Surface Window Heat Gain Energy [J] !Hourly
620,1,ROOM_4742F51F..FACE3_GLZ1,Surface Window Heat Loss Energy [J] !Hourly
621,1,ROOM_4742F51F..FACE4_GLZ1,Surface Window Heat Gain Energy [J] !Hourly
622,1,ROOM_4742F51F..FACE4_GLZ1,Surface Window Heat Loss Energy [J] !Hourly
623,1,ROOM_4C2D24B9..FACE2_GLZ1,Surface Window Heat Gain Energy [J] !Hourly
624,1,ROOM_4C2D24B9..FACE2_GLZ1,Surface Window Heat Loss Energy [J] !Hourly
625,1,ROOM_4C2D24B9..FACE3_GLZ1,Surface Window Heat Gain Energy [J] !Hourly
626,1,ROOM_4C2D24B9..FACE3_GLZ1,Surface Window Heat Loss Energy [J] !Hourly
627,1,ROOM_4F9EE72E..FACE1_GLZ1,Surface Window Heat Gain Energy [J] !Hourly
628,1,ROOM_4F9EE72E..FACE1_GLZ1,Surface Window Heat Loss Energy [J] !Hourly
629,1,ROOM_4F9EE72E..FACE2_GLZ1,Surface Window Heat Gain Energy [J] !Hourly
630,1,ROOM_4F9EE72E..FACE2_GLZ1,Surface Window Heat Loss Energy [J] !Hourly
631,1,ROOM_4F9EE72E..FACE4_GLZ1,Surface Window Heat Gain Energy [J] !Hourly
632,1,ROOM_4F9EE72E..FACE4_GLZ1,Surface Window Heat Loss Energy [J] !Hourly
633,1,ROOM_B1FA130A..FACE3_GLZ1,Surface Window Heat Gain Energy [J] !Hourly
634,1,ROOM_B1FA130A..FACE3_GLZ1,Surface Window Heat Loss Energy [J] !Hourly
635,1,ROOM_B1FA130A..FACE4_GLZ1,Surface Window Heat Gain Energy [J] !Hourly
636,1,ROOM_B1FA130A..FACE4_GLZ1,Surface Window Heat Loss Energy [J] !Hourly
637,1,ROOM_B33EAB3D..FACE1_GLZ1,Surface Window Heat Gain Energy [J] !Hourly
638,1,ROOM_B33EAB3D..FACE1_GLZ1,Surface Window Heat Loss Energy [J] !Hourly
639,1,ROOM_B33EAB3D..FACE3_GLZ1,Surface Window Heat Gain Energy [J] !Hourly
640,1,ROOM_B33EAB3D..FACE3_GLZ1,Surface Window Heat Loss Energy [J] !Hourly
641,1,ROOM_BE96053F..FACE2_GLZ1,Surface Window Heat Gain Energy [J] !Hourly
642,1,ROOM_BE96053F..FACE2_GLZ1,Surface Window Heat Loss Energy [J] !Hourly
643,1,ROOM_BE96053F..FACE4_GLZ1,Surface Window Heat Gain Energy [J] !Hourly
644,1,ROOM_BE96053F..FACE4_GLZ1,Surface Window Heat Loss Energy [J] !Hourly
645,1,ROOM_C1230868..FACE1_GLZ1,Surface Window Heat Gain Energy [J] !Hourly
646,1,ROOM_C1230868..FACE1_GLZ1,Surface Window Heat Loss Energy [J] !Hourly
647,1,ROOM_C466F578..FACE1_GLZ1,Surface Window Heat Gain Energy [J] !Hourly
648,1,ROOM_C466F578..FACE1_GLZ1,Surface Window Heat Loss Energy [J] !Hourly
649,1,ROOM_C466F578..FACE2_GLZ1,Surface Window Heat Gain Energy [J] !Hourly
650,1,ROOM_C466F578..FACE2_GLZ1,Surface Window Heat Loss Energy [J] !Hourly
651,1,ROOM_D8482C34..FACE4_GLZ1,Surface Window Heat Gain Energy [J] !Hourly
652,1,ROOM_D8482C34..FACE4_GLZ1,Surface Window Heat Loss Energy [J] !Hourly
653,1,ROOM_D8482C34..FACE7_GLZ1,Surface Window Heat Gain Energy [J] !Hourly
654,1,ROOM_D8482C34..FACE7_GLZ1,Surface Window Heat Loss Energy [J] !Hourly
655,1,ROOM_0F2955AD..FACE1,Surface Average Face Conduction Heat Transfer Energy [J] !Hourly
656,1,ROOM_0F2955AD..FACE2,Surface Outside Face Solar Radiation Heat Gain Energy [J] !Hourly
657,1,ROOM_0F2955AD..FACE2,Surface Average Face Conduction Heat Transfer Energy [J] !Hourly
658,1,ROOM_0F2955AD..FACE3,Surface Outside Face Solar Radiation Heat Gain Energy [J] !Hourly
659,1,ROOM_0F2955AD..FACE3,Surface Average Face Conduction Heat Transfer Energy [J] !Hourly
660,1,ROOM_0F2955AD..FACE4,Surface Average Face Conduction Heat Transfer Energy [J] !Hourly
661,1,ROOM_0F2955AD..FACE0,Surface Average Face Conduction Heat Transfer Energy [J] !Hourly
662,1,ROOM_0F2955AD..FACE5,Surface Average Face Conduction Heat Transfer Energy [J] !Hourly
663,1,ROOM_167A649D..FACE1,Surface Outside Face Solar Radiation Heat Gain Energy [J] !Hourly
664,1,ROOM_167A649D..FACE1,Surface Average Face Conduction Heat Transfer Energy [J] !Hourly
665,1,ROOM_167A649D..FACE2,Surface Outside Face Solar Radiation Heat Gain Energy [J] !Hourly
666,1,ROOM_167A649D..FACE2,Surface Average Face Conduction Heat Transfer Energy [J] !Hourly
667,1,ROOM_167A649D..FACE3,Surface Outside Face Solar Radiation Heat Gain Energy [J] !Hourly
668,1,ROOM_167A649D..FACE3,Surface Average Face Conduction Heat Transfer Energy [J] !Hourly
669,1,ROOM_167A649D..FACE4,Surface Average Face Conduction Heat Transfer Energy [J] !Hourly
670,1,ROOM_167A649D..FACE5,Surface Average Face Conduction Heat Transfer Energy [J] !Hourly
671,1,ROOM_167A649D..FACE0,Surface Average Face Conduction Heat Transfer Energy [J] !Hourly
672,1,ROOM_167A649D..FACE6,Surface Average Face Conduction Heat Transfer Energy [J] !Hourly
673,1,ROOM_21ED5075..FACE1,Surface Outside Face Solar Radiation Heat Gain Energy [J] !Hourly
674,1,ROOM_21ED5075..FACE1,Surface Average Face Conduction Heat Transfer Energy [J] !Hourly
675,1,ROOM_21ED5075..FACE2,Surface Outside Face Solar Radiation Heat Gain Energy [J] !Hourly
676,1,ROOM_21ED5075..FACE2,Surface Average Face Conduction Heat Transfer Energy [J] !Hourly
677,1,ROOM_21ED5075..FACE3,Surface Outside Face Solar Radiation Heat Gain Energy [J] !Hourly
678,1,ROOM_21ED5075..FACE3,Surface Average Face Conduction Heat Transfer Energy [J] !Hourly
679,1,ROOM_21ED5075..FACE4,Surface Outside Face Solar Radiation Heat Gain Energy [J] !Hourly
680,1,ROOM_21ED5075..FACE4,Surface Average Face Conduction Heat Transfer Energy [J] !Hourly
681,1,ROOM_21ED5075..FACE0,Surface Average Face Conduction Heat Transfer Energy [J] !Hourly
682,1,ROOM_21ED5075..FACE5,Surface Average Face Conduction Heat Transfer Energy [J] !Hourly
683,1,ROOM_32F964D5..FACE1,Surface Outside Face Solar Radiation Heat Gain Energy [J] !Hourly
684,1,ROOM_32F964D5..FACE1,Surface Average Face Conduction Heat Transfer Energy [J] !Hourly
685,1,ROOM_32F964D5..FACE2,Surface Average Face Conduction Heat Transfer Energy [J] !Hourly
686,1,ROOM_32F964D5..FACE3,Surface Average Face Conduction Heat Transfer Energy [J] !Hourly
687,1,ROOM_32F964D5..FACE0,Surface Average Face Conduction Heat Transfer Energy [J] !Hourly
688,1,ROOM_32F964D5..FACE4,Surface Average Face Conduction Heat Transfer Energy [J] !Hourly
689,1,ROOM_4742F51F..FACE1,Surface Average Face Conduction Heat Transfer Energy [J] !Hourly
690,1,ROOM_4742F51F..FACE2,Surface Average Face Conduction Heat Transfer Energy [J] !Hourly
691,1,ROOM_4742F51F..FACE3,Surface Outside Face Solar Radiation Heat Gain Energy [J] !Hourly
692,1,ROOM_4742F51F..FACE3,Surface Average Face Conduction Heat Transfer Energy [J] !Hourly
693,1,ROOM_4742F51F..FACE4,Surface Outside Face Solar Radiation Heat Gain Energy [J] !Hourly
694,1,ROOM_4742F51F..FACE4,Surface Average Face Conduction Heat Transfer Energy [J] !Hourly
695,1,ROOM_4742F51F..FACE0,Surface Average Face Conduction Heat Transfer Energy [J] !Hourly
696,1,ROOM_4742F51F..FACE5,Surface Average Face Conduction Heat Transfer Energy [J] !Hourly
697,1,ROOM_4C2D24B9..FACE1,Surface Average Face Conduction Heat Transfer Energy [J] !Hourly
698,1,ROOM_4C2D24B9..FACE2,Surface Outside Face Solar Radiation Heat Gain Energy [J] !Hourly
699,1,ROOM_4C2D24B9..FACE2,Surface Average Face Conduction Heat Transfer Energy [J] !Hourly
700,1,ROOM_4C2D24B9..FACE3,Surface Outside Face Solar Radiation Heat Gain Energy [J] !Hourly
701,1,ROOM_4C2D24B9..FACE3,Surface Average Face Conduction Heat Transfer Energy [J] !Hourly
702,1,ROOM_4C2D24B9..FACE4,Surface Average Face Conduction Heat Transfer Energy [J] !Hourly
703,1,ROOM_4C2D24B9..FACE5,Surface Average Face Conduction Heat Transfer Energy [J] !Hourly
704,1,ROOM_4C2D24B9..FACE0,Surface Average Face Conduction Heat Transfer Energy [J] !Hourly
705,1,ROOM_4C2D24B9..FACE6,Surface Average Face Conduction Heat Transfer Energy [J] !Hourly
706,1,ROOM_4F9EE72E..FACE1,Surface Outside Face Solar Radiation Heat Gain Energy [J] !Hourly
707,1,ROOM_4F9EE72E..FACE1,Surface Average Face Conduction Heat Transfer Energy [J] !Hourly
708,1,ROOM_4F9EE72E..FACE2,Surface Outside Face Solar Radiation Heat Gain Energy [J] !Hourly
709,1,ROOM_4F9EE72E..FACE2,Surface Average Face Conduction Heat Transfer Energy [J] !Hourly
710,1,ROOM_4F9EE72E..FACE3,Surface Average Face Conduction Heat Transfer Energy [J] !Hourly
711,1,ROOM_4F9EE72E..FACE4,Surface Outside Face Solar Radiation Heat Gain Energy [J] !Hourly
712,1,ROOM_4F9EE72E..FACE4,Surface Average Face Conduction Heat Transfer Energy [J] !Hourly
713,1,ROOM_4F9EE72E..FACE0,Surface Average Face Conduction Heat Transfer Energy [J] !Hourly
714,1,ROOM_4F9EE72E..FACE5,Surface Average Face Conduction Heat Transfer Energy [J] !Hourly
715,1,ROOM_B1FA130A..FACE1,Surface Average Face Conduction Heat Transfer Energy [J] !Hourly
716,1,ROOM_B1FA130A..FACE2,Surface Average Face Conduction Heat Transfer Energy [J] !Hourly
717,1,ROOM_B1FA130A..FACE3,Surface Outside Face Solar Radiation Heat Gain Energy [J] !Hourly
718,1,ROOM_B1FA130A..FACE3,Surface Average Face Conduction Heat Transfer Energy [J] !Hourly
719,1,ROOM_B1FA130A..FACE4,Surface Outside Face Solar Radiation Heat Gain Energy [J] !Hourly
720,1,ROOM_B1FA130A..FACE4,Surface Average Face Conduction Heat Transfer Energy [J] !Hourly
721,1,ROOM_B1FA130A..FACE0,Surface Average Face Conduction Heat Transfer Energy [J] !Hourly
722,1,ROOM_B1FA130A..FACE5,Surface Average Face Conduction Heat Transfer Energy [J] !Hourly
723,1,ROOM_B33EAB3D..FACE1,Surface Outside Face Solar Radiation Heat Gain Energy [J] !Hourly
724,1,ROOM_B33EAB3D..FACE1,Surface Average Face Conduction Heat Transfer Energy [J] !Hourly
725,1,ROOM_B33EAB3D..FACE2,Surface Average Face Conduction Heat Transfer Energy [J] !Hourly
726,1,ROOM_B33EAB3D..FACE3,Surface Outside Face Solar Radiation Heat Gain Energy [J] !Hourly
727,1,ROOM_B33EAB3D..FACE3,Surface Average Face Conduction Heat Transfer Energy [J] !Hourly
728,1,ROOM_B33EAB3D..FACE0,Surface Average Face Conduction Heat Transfer Energy [J] !Hourly
729,1,ROOM_B33EAB3D..FACE4,Surface Average Face Conduction Heat Transfer Energy [J] !Hourly
730,1,ROOM_BE96053F..FACE1,Surface Average Face Conduction Heat Transfer Energy [J] !Hourly
731,1,ROOM_BE96053F..FACE2,Surface Outside Face Solar Radiation Heat Gain Energy [J] !Hourly
732,1,ROOM_BE96053F..FACE2,Surface Average Face Conduction Heat Transfer Energy [J] !Hourly
733,1,ROOM_BE96053F..FACE3,Surface Average Face Conduction Heat Transfer Energy [J] !Hourly
734,1,ROOM_BE96053F..FACE4,Surface Outside Face Solar Radiation Heat Gain Energy [J] !Hourly
735,1,ROOM_BE96053F..FACE4,Surface Average Face Conduction Heat Transfer Energy [J] !Hourly
736,1,ROOM_BE96053F..FACE0,Surface Average Face Conduction Heat Transfer Energy [J] !Hourly
737,1,ROOM_BE96053F..FACE5,Surface Average Face Conduction Heat Transfer Energy [J] !Hourly
738,1,ROOM_C1230868..FACE1,Surface Outside Face Solar Radiation Heat Gain Energy [J] !Hourly
739,1,ROOM_C1230868..FACE1,Surface Average Face Conduction Heat Transfer Energy [J] !Hourly
740,1,ROOM_C1230868..FACE2,Surface Average Face Conduction Heat Transfer Energy [J] !Hourly
741,1,ROOM_C1230868..FACE3,Surface Average Face Conduction Heat Transfer Energy [J] !Hourly
742,1,ROOM_C1230868..FACE4,Surface Average Face Conduction Heat Transfer Energy [J] !Hourly
743,1,ROOM_C1230868..FACE0,Surface Average Face Conduction Heat Transfer Energy [J] !Hourly
744,1,ROOM_C1230868..FACE5,Surface Average Face Conduction Heat Transfer Energy [J] !Hourly
745,1,ROOM_C466F578..FACE1,Surface Outside Face Solar Radiation Heat Gain Energy [J] !Hourly
746,1,ROOM_C466F578..FACE1,Surface Average Face Conduction Heat Transfer Energy [J] !Hourly
747,1,ROOM_C466F578..FACE2,Surface Outside Face Solar Radiation Heat Gain Energy [J] !Hourly
748,1,ROOM_C466F578..FACE2,Surface Average Face Conduction Heat Transfer Energy [J] !Hourly
749,1,ROOM_C466F578..FACE3,Surface Average Face Conduction Heat Transfer Energy [J] !Hourly
750,1,ROOM_C466F578..FACE4,Surface Average Face Conduction Heat Transfer Energy [J] !Hourly
751,1,ROOM_C466F578..FACE5,Surface Average Face Conduction Heat Transfer Energy [J] !Hourly
752,1,ROOM_C466F578..FACE0,Surface Average Face Conduction Heat Transfer Energy [J] !Hourly
753,1,ROOM_C466F578..FACE6,Surface Average Face Conduction Heat Transfer Energy [J] !Hourly
754,1,ROOM_D8482C34..FACE1,Surface Average Face Conduction Heat Transfer Energy [J] !Hourly
755,1,ROOM_D8482C34..FACE2,Surface Average Face Conduction Heat Transfer Energy [J] !Hourly
756,1,ROOM_D8482C34..FACE3,Surface Average Face Conduction Heat Transfer Energy [J] !Hourly
757,1,ROOM_D8482C34..FACE4,Surface Outside Face Solar Radiation Heat Gain Energy [J] !Hourly
758,1,ROOM_D8482C34..FACE4,Surface Average Face Conduction Heat Transfer Energy [J] !Hourly
759,1,ROOM_D8482C34..FACE5,Surface Average Face Conduction Heat Transfer Energy [J] !Hourly
760,1,ROOM_D8482C34..FACE6,Surface Average Face Conduction Heat Transfer Energy [J] !Hourly
761,1,ROOM_D8482C34..FACE7,Surface Outside Face Solar Radiation Heat Gain Energy [J] !Hourly
762,1,ROOM_D8482C34..FACE7,Surface Average Face Conduction Heat Transfer Energy [J] !Hourly
763,1,ROOM_D8482C34..FACE0,Surface Average Face Conduction Heat Transfer Energy [J] !Hourly
764,1,ROOM_D8482C34..FACE8,Surface Average Face Conduction Heat Transfer Energy [J] !Hourly
765,1,ROOM_0F2955AD,Zone Infiltration Total Heat Loss Energy [J] !Hourly
766,1,ROOM_0F2955AD,Zone Infiltration Total Heat Gain Energy [J] !Hourly
767,1,ROOM_167A649D,Zone Infiltration Total Heat Loss Energy [J] !Hourly
768,1,ROOM_167A649D,Zone Infiltration Total Heat Gain Energy [J] !Hourly
769,1,ROOM_21ED5075,Zone Infiltration Total Heat Loss Energy [J] !Hourly
770,1,ROOM_21ED5075,Zone Infiltration Total Heat Gain Energy [J] !Hourly
771,1,ROOM_32F964D5,Zone Infiltration Total Heat Loss Energy [J] !Hourly
772,1,ROOM_32F964D5,Zone Infiltration Total Heat Gain Energy [J] !Hourly
773,1,ROOM_4742F51F,Zone Infiltration Total Heat Loss Energy [J] !Hourly
774,1,ROOM_4742F51F,Zone Infiltration Total Heat Gain Energy [J] !Hourly
775,1,ROOM_4C2D24B9,Zone Infiltration Total Heat Loss Energy [J] !Hourly
776,1,ROOM_4C2D24B9,Zone Infiltration Total Heat Gain Energy [J] !Hourly
777,1,ROOM_4F9EE72E,Zone Infiltration Total Heat Loss Energy [J] !Hourly
778,1,ROOM_4F9EE72E,Zone Infiltration Total Heat Gain Energy [J] !Hourly
779,1,ROOM_B1FA130A,Zone Infiltration Total Heat Loss Energy [J] !Hourly
780,1,ROOM_B1FA130A,Zone Infiltration Total Heat Gain Energy [J] !Hourly
781,1,ROOM_B33EAB3D,Zone Infiltration Total Heat Loss Energy [J] !Hourly
782,1,ROOM_B33EAB3D,Zone Infiltration Total Heat Gain Energy [J] !Hourly
783,1,ROOM_BE96053F,Zone Infiltration Total Heat Loss Energy [J] !Hourly
784,1,ROOM_BE96053F,Zone Infiltration Total Heat Gain Energy [J] !Hourly
785,1,ROOM_C1230868,Zone Infiltration Total Heat Loss Energy [J] !Hourly
786,1,ROOM_C1230868,Zone Infiltration Total Heat Gain Energy [J] !Hourly
787,1,ROOM_C466F578,Zone Infiltration Total Heat Loss Energy [J] !Hourly
788,1,ROOM_C466F578,Zone Infiltration Total Heat Gain Energy [J] !Hourly
789,1,ROOM_D8482C34,Zone Infiltration Total Heat Loss Energy [J] !Hourly
790,1,ROOM_D8482C34,Zone Infiltration Total Heat Gain Energy [J] !Hourly
1504,1,ROOM_0F2955AD IDEAL LOADS AIR SYSTEM,Zone Ideal Loads Supply Air Total Heating Energy [J] !Hourly
1553,1,ROOM_0F2955AD IDEAL LOADS AIR SYSTEM,Zone Ideal Loads Supply Air Total Cooling Energy [J] !Hourly
1602,1,ROOM_0F2955AD IDEAL LOADS AIR SYSTEM,Zone Ideal Loads Zone Total Heating Energy [J] !Hourly
1603,1,ROOM_0F2955AD IDEAL LOADS AIR SYSTEM,Zone Ideal Loads Zone Total Cooling Energy [J] !Hourly
1604,1,ROOM_167A649D IDEAL LOADS AIR SYSTEM,Zone Ideal Loads Supply Air Total Heating Energy [J] !Hourly
1605,1,ROOM_167A649D IDEAL LOADS AIR SYSTEM,Zone Ideal Loads Supply Air Total Cooling Energy [J] !Hourly
1606,1,ROOM_167A649D IDEAL LOADS AIR SYSTEM,Zone Ideal Loads Zone Total Heating Energy [J] !Hourly
1607,1,ROOM_167A649D IDEAL LOADS AIR SYSTEM,Zone Ideal Loads Zone Total Cooling Energy [J] !Hourly
1608,1,ROOM_21ED5075 IDEAL LOADS AIR SYSTEM,Zone Ideal Loads Supply Air Total Heating Energy [J] !Hourly
1609,1,ROOM_21ED5075 IDEAL LOADS AIR SYSTEM,Zone Ideal Loads Supply Air Total Cooling Energy [J] !Hourly
1610,1,ROOM_21ED5075 IDEAL LOADS AIR SYSTEM,Zone Ideal Loads Zone Total Heating Energy [J] !Hourly
1611,1,ROOM_21ED5075 IDEAL LOADS AIR SYSTEM,Zone Ideal Loads Zone Total Cooling Energy [J] !Hourly
1612,1,ROOM_32F964D5 IDEAL LOADS AIR SYSTEM,Zone Ideal Loads Supply Air Total Heating Energy [J] !Hourly
1613,1,ROOM_32F964D5 IDEAL LOADS AIR SYSTEM,Zone Ideal Loads Supply Air Total Cooling Energy [J] !Hourly
1614,1,ROOM_32F964D5 IDEAL LOADS AIR SYSTEM,Zone Ideal Loads Zone Total Heating Energy [J] !Hourly
1615,1,ROOM_32F964D5 IDEAL LOADS AIR SYSTEM,Zone Ideal Loads Zone Total Cooling Energy [J] !Hourly
1616,1,ROOM_4742F51F IDEAL LOADS AIR SYSTEM,Zone Ideal Loads Supply Air Total Heating Energy [J] !Hourly
1617,1,ROOM_4742F51F IDEAL LOADS AIR SYSTEM,Zone Ideal Loads Supply Air Total Cooling Energy [J] !Hourly
1618,1,ROOM_4742F51F IDEAL LOADS AIR SYSTEM,Zone Ideal Loads Zone Total Heating Energy [J] !Hourly
1619,1,ROOM_4742F51F IDEAL LOADS AIR SYSTEM,Zone Ideal Loads Zone Total Cooling Energy [J] !Hourly
1620,1,ROOM_4C2D24B9 IDEAL LOADS AIR SYSTEM,Zone Ideal Loads Supply Air Total Heating Energy [J] !Hourly
1621,1,ROOM_4C2D24B9 IDEAL LOADS AIR SYSTEM,Zone Ideal Loads Supply Air Total Cooling Energy [J] !Hourly
1622,1,ROOM_4C2D24B9 IDEAL LOADS AIR SYSTEM,Zone Ideal Loads Zone Total Heating Energy [J] !Hourly
1623,1,ROOM_4C2D24B9 IDEAL LOADS AIR SYSTEM,Zone Ideal Loads Zone Total Cooling Energy [J] !Hourly
1624,1,ROOM_4F9EE72E IDEAL LOADS AIR SYSTEM,Zone Ideal Loads Supply Air Total Heating Energy [J] !Hourly
1625,1,ROOM_4F9EE72E IDEAL LOADS AIR SYSTEM,Zone Ideal Loads Supply Air Total Cooling Energy [J] !Hourly
1626,1,ROOM_4F9EE72E IDEAL LOADS AIR SYSTEM,Zone Ideal Loads Zone Total Heating Energy [J] !Hourly
1627,1,ROOM_4F9EE72E IDEAL LOADS AIR SYSTEM,Zone Ideal Loads Zone Total Cooling Energy [J] !Hourly
1628,1,ROOM_B1FA130A IDEAL LOADS AIR SYSTEM,Zone Ideal Loads Supply Air Total Heating Energy [J] !Hourly
1629,1,ROOM_B1FA130A IDEAL LOADS AIR SYSTEM,Zone Ideal Loads Supply Air Total Cooling Energy [J] !Hourly
1630,1,ROOM_B1FA130A IDEAL LOADS AIR SYSTEM,Zone Ideal Loads Zone Total Heating Energy [J] !Hourly
1631,1,ROOM_B1FA130A IDEAL LOADS AIR SYSTEM,Zone Ideal Loads Zone Total Cooling Energy [J] !Hourly
1632,1,ROOM_B33EAB3D IDEAL LOADS AIR SYSTEM,Zone Ideal Loads Supply Air Total Heating Energy [J] !Hourly
1633,1,ROOM_B33EAB3D IDEAL LOADS AIR SYSTEM,Zone Ideal Loads Supply Air Total Cooling Energy [J] !Hourly
1634,1,ROOM_B33EAB3D IDEAL LOADS AIR SYSTEM,Zone Ideal Loads Zone Total Heating Energy [J] !Hourly
1635,1,ROOM_B33EAB3D IDEAL LOADS AIR SYSTEM,Zone Ideal Loads Zone Total Cooling Energy [J] !Hourly
1636,1,ROOM_BE96053F IDEAL LOADS AIR SYSTEM,Zone Ideal Loads Supply Air Total Heating Energy [J] !Hourly
1637,1,ROOM_BE96053F IDEAL LOADS AIR SYSTEM,Zone Ideal Loads Supply Air Total Cooling Energy [J] !Hourly
1638,1,ROOM_BE96053F IDEAL LOADS AIR SYSTEM,Zone Ideal Loads Zone Total Heating Energy [J] !Hourly
1639,1,ROOM_BE96053F IDEAL LOADS AIR SYSTEM,Zone Ideal Loads Zone Total Cooling Energy [J] !Hourly
1640,1,ROOM_C1230868 IDEAL LOADS AIR SYSTEM,Zone Ideal Loads Supply Air Total Heating Energy [J] !Hourly
1641,1,ROOM_C1230868 IDEAL LOADS AIR SYSTEM,Zone Ideal Loads Supply Air Total Cooling Energy [J] !Hourly
1642,1,ROOM_C1230868 IDEAL LOADS AIR SYSTEM,Zone Ideal Loads Zone Total Heating Energy [J] !Hourly
1643,1,ROOM_C1230868 IDEAL LOADS AIR SYSTEM,Zone Ideal Loads Zone Total Cooling Energy [J] !Hourly
1644,1,ROOM_C466F578 IDEAL LOADS AIR SYSTEM,Zone Ideal Loads Supply Air Total Heating Energy [J] !Hourly
1645,1,ROOM_C466F578 IDEAL LOADS AIR SYSTEM,Zone Ideal Loads Supply Air Total Cooling Energy [J] !Hourly
1646,1,ROOM_C466F578 IDEAL LOADS AIR SYSTEM,Zone Ideal Loads Zone Total Heating Energy [J] !Hourly
1647,1,ROOM_C466F578 IDEAL LOADS AIR SYSTEM,Zone Ideal Loads Zone Total Cooling Energy [J] !Hourly
1648,1,ROOM_D8482C34 IDEAL LOADS AIR SYSTEM,Zone Ideal Loads Supply Air Total Heating Energy [J] !Hourly
1649,1,ROOM_D8482C34 IDEAL LOADS AIR SYSTEM,Zone Ideal Loads Supply Air Total Cooling Energy [J] !Hourly
1650,1,ROOM_D8482C34 IDEAL LOADS AIR SYSTEM,Zone Ideal Loads Zone Total Heating Energy [J] !Hourly
1651,1,ROOM_D8482C34 IDEAL LOADS AIR SYSTEM,Zone Ideal Loads Zone Total Cooling Energy [J] !Hourly
End of Data Dictionary
1,RUN PERIOD 1,  42.37, -71.02,  -5.00,   6.00
2,1, 1, 1, 0, 1, 0.00,60.00,Sunday
7,0.0
8,0.0
9,0.0
10,0.0
11,0.0
12,0.0
13,0.0
14,0.0
15,0.0
16,0.0
17,0.0
18,0.0
19,0.0
586,0.0
587,0.0
588,0.0
589,0.0
590,0.0
591,0.0
592,0.0
593,0.0
594,0.0
595,0.0
596,0.0
597,0.0
598,0.0
599,0.0
600,208060.76871806684
601,0.0
602,242747.28616185834
603,0.0
604,343341.1078450694
605,0.0
606,524724.8524493172
607,0.0
608,322669.9820237416
609,0.0
610,240561.70198825925
611,0.0
612,127395.12377893669
613,0.0
614,250065.18262783215
615,0.0
616,128046.45902720816
617,0.0
618,191644.80411298923
619,0.0
620,242002.90987663374
621,0.0
622,210250.86869782758
623,0.0
624,358931.9299817669
625,0.0
626,256686.8441188957
627,0.0
628,125662.6218671796
629,0.0
630,131444.65081907449
631,0.0
632,133443.56872587425
633,0.0
634,224290.3380516468
635,0.0
636,194860.0713073284
637,0.0
638,160232.5763033877
639,0.0
640,89884.57548648809
641,0.0
642,166969.72923684366
643,0.0
644,170656.14249435237
645,0.0
646,178283.19434927323
647,0.0
648,250616.44843756699
649,0.0
650,340217.5088917335
651,0.0
652,174552.36563222396
653,0.0
654,163583.0374243577
655,13751.03844608384
656,0.0
657,-142432.77203275279
658,0.0
659,-107529.29323506728
660,-3532.6508636795349
661,38700.43553478921
662,2838.1380621841306
663,0.0
664,-328594.1514372289
665,0.0
666,-982397.2367133708
667,0.0
668,-210728.47785933893
669,-21066.770727753483
670,-2118.2676681767468
671,465108.9581602098
672,73429.52344732898
673,0.0
674,-331560.92250109926
675,0.0
676,-80402.93275549721
677,0.0
678,-117742.61239306221
679,0.0
680,-113658.49407816364
681,130725.36285276899
682,10172.511144187632
683,0.0
684,-113583.84926164523
685,19589.4220876166
686,7294.189967046694
687,6770.712756508496
688,608.530612561435
689,18651.39250671113
690,-279.1615471523076
691,0.0
692,-111745.78947863165
693,0.0
694,-200774.7331068245
695,64773.11071948061
696,6115.519925053539
697,22633.511040613128
698,0.0
699,-199818.43592719409
700,0.0
701,-118160.87193991579
702,-3162.494304077145
703,11504.08081075577
704,55514.762083785456
705,6513.234202486112
706,0.0
707,-246353.92499196757
708,0.0
709,-106746.34095161488
710,-4472.361626512062
711,0.0
712,-119107.20342298335
713,91143.2613470626
714,9276.641718992874
715,13467.726631492153
716,-1909.1324396879309
717,0.0
718,-100841.2046556666
719,0.0
720,-123776.78571009706
721,26776.546491851706
722,1753.7139223738719
723,0.0
724,-200510.4503618435
725,19106.445988466123
726,0.0
727,-37555.864938947925
728,32384.6563988555
729,2131.38241411643
730,1589.8269854235874
731,0.0
732,-83325.36837542817
733,11962.641715270978
734,0.0
735,-111724.38328050194
736,20475.566096202496
737,1680.6063849722939
738,0.0
739,-166848.61353794035
740,7337.0511809458789
741,-11786.810957188267
742,-19265.63157033948
743,52174.54755053947
744,8356.728605751854
745,0.0
746,-473790.7658303386
747,0.0
748,-236698.12176701195
749,-3530.3754409636014
750,-21959.320236713498
751,-21022.682968640718
752,198766.32917704545
753,27703.775445361654
754,-14419.513843503595
755,-8989.404034756248
756,4762.326394591119
757,0.0
758,-118320.4398627549
759,-17315.794825687706
760,-16975.812626926927
761,0.0
762,-102584.14062032398
763,54087.18873257434
764,7212.587409636582
765,292515.7528210095
766,0.0
767,749102.1746683385
768,0.0
769,517642.9146988784
770,0.0
771,138453.95738382665
772,0.0
773,291717.79516870938
774,0.0
775,412590.6194507964
776,0.0
777,270588.025638278
778,0.0
779,281612.49725429838
780,0.0
781,180889.94959169138
782,0.0
783,243079.16807764717
784,0.0
785,109663.1521567791
786,0.0
787,369508.76583870817
788,0.0
789,219367.84697384883
790,0.0
1504,1208540.6088538583
1553,0.0
1602,855284.2316441861
1603,0.0
1604,2333580.2892301015
1605,0.0
1606,1184979.899690163
1607,0.0
1608,1606792.8327262982
1609,0.0
1610,1361646.3920704262
1611,0.0
1612,452147.52722362996
1613,0.0
1614,387215.72845961319
1615,0.0
1616,1114764.1245610472
1617,0.0
1618,763360.3957847332
1619,0.0
1620,1794952.3888462967
1621,0.0
1622,1109116.9047106393
1623,0.0
1624,755543.5757670206
1625,0.0
1626,628452.2030537247
1627,0.0
1628,1155662.4810478897
1629,0.0
1630,827028.6710853777
1631,0.0
1632,503965.2729556899
1633,0.0
1634,453944.7233087689
1635,0.0
1636,868461.2461558835
1637,0.0
1638,703135.0269630571
1639,0.0
1640,529787.3600981719
1641,0.0
1642,243652.95595738438
1643,0.0
1644,1306325.5381307353
1645,0.0
1646,750076.8595875586
1647,0.0
1648,1184461.9942988666
1649,0.0
1650,628979.7221200813
1651,0.0
2,1, 1, 1, 0, 2, 0.00,60.00,Sunday
7,0.0
8,0.0
9,0.0
10,0.0
11,0.0
12,0.0
13,0.0
14,0.0
15,0.0
16,0.0
17,0.0
18,0.0
19,0.0
586,0.0
587,0.0
588,0.0
589,0.0
590,0.0
591,0.0
592,0.0
593,0.0
594,0.0
595,0.0
596,0.0
597,0.0
598,0.0
599,0.0
600,161064.99190985555
601,0.0
602,187833.9773541507
603,0.0
604,267340.0487255097
605,0.0
606,408956.85003958389
607,0.0
608,253972.2824456432
609,0.0
610,186043.13048515903
611,0.0
612,98134.18110596751
613,0.0
614,192065.89163178815
615,0.0
616,98466.43937461582
617,0.0
618,149874.43449401918
619,0.0
620,187859.97720698414
621,0.0
622,162900.7907012932
623,0.0
624,281178.70410962807
625,0.0
626,199549.53422471186
627,0.0
628,97144.96103381683