Program Version,EnergyPlus, Version 9.3.0-baff08990c, YMD=2021.04.24 20:35
1,5,Environment Title[],Latitude[deg],Longitude[deg],Time Zone[],Elevation[m]
2,8,Day of Simulation[],Month[],Day of Month[],DST Indicator[1=yes 0=no],Hour[],StartMinute[],EndMinute[],DayType
3,5,Cumulative Day of Simulation[],Month[],Day of Month[],DST Indicator[1=yes 0=no],DayType  ! When Daily Report Variables Requested
4,2,Cumulative Days of Simulation[],Month[]  ! When Monthly Report Variables Requested
5,1,Cumulative Days of Simulation[] ! When Run Period Report Variables Requested
6,1,Calendar Year of Simulation[] ! When Annual Report Variables Requested
7,1,ROOM_10533FFE,Zone People Total Heating Energy [J] !Hourly
8,1,ROOM_2F65B023,Zone People Total Heating Energy [J] !Hourly
9,1,ROOM_316441DD,Zone People Total Heating Energy [J] !Hourly
10,1,ROOM_8ABA2638,Zone People Total Heating Energy [J] !Hourly
11,1,ROOM_90704E71,Zone People Total Heating Energy [J] !Hourly
12,1,ROOM_9593F6F2,Zone People Total Heating Energy [J] !Hourly
13,1,ROOM_AD814305,Zone People Total Heating Energy [J] !Hourly
14,1,ROOM_B3BDC0BD,Zone People Total Heating Energy [J] !Hourly
15,1,ROOM_B4EA8662,Zone People Total Heating Energy [J] !Hourly
16,1,ROOM_CC86CFED,Zone People Total Heating Energy [J] !Hourly
17,1,ROOM_CCA22579,Zone People Total Heating Energy [J] !Hourly
18,1,ROOM_CD20DD88,Zone People Total Heating Energy [J] !Hourly
19,1,ROOM_D0055766,Zone People Total Heating Energy [J] !Hourly
20,1,ROOM_D8420A82,Zone People Total Heating Energy [J] !Hourly
21,1,ROOM_FA41CB8E,Zone People Total Heating Energy [J] !Hourly
664,1,ROOM_10533FFE,Zone Windows Total Transmitted Solar Radiation Energy [J] !Hourly
665,1,ROOM_2F65B023,Zone Windows Total Transmitted Solar Radiation Energy [J] !Hourly
666,1,ROOM_316441DD,Zone Windows Total Transmitted Solar Radiation Energy [J] !Hourly
667,1,ROOM_8ABA2638,Zone Windows Total Transmitted Solar Radiation Energy [J] !Hourly
668,1,ROOM_90704E71,Zone Windows Total Transmitted Solar Radiation Energy [J] !Hourly
669,1,ROOM_9593F6F2,Zone Windows Total Transmitted Solar Radiation Energy [J] !Hourly
670,1,ROOM_AD814305,Zone Windows Total Transmitted Solar Radiation Energy [J] !Hourly
671,1,ROOM_B3BDC0BD,Zone Windows Total Transmitted Solar Radiation Energy [J] !Hourly
672,1,ROOM_B4EA8662,Zone Windows Total Transmitted Solar Radiation Energy [J] !Hourly
673,1,ROOM_CC86CFED,Zone Windows Total Transmitted Solar Radiation Energy [J] !Hourly
674,1,ROOM_CCA22579,Zone Windows Total Transmitted Solar Radiation Energy [J] !Hourly
675,1,ROOM_CD20DD88,Zone Windows Total Transmitted Solar Radiation Energy [J] !Hourly
676,1,ROOM_D0055766,Zone Windows Total Transmitted Solar Radiation Energy [J] !Hourly
677,1,ROOM_D8420A82,Zone Windows Total Transmitted Solar Radiation Energy [J] !Hourly
678,1,ROOM_FA41CB8E,Zone Windows Total Transmitted Solar Radiation Energy [J] !Hourly
679,1,ROOM_10533FFE..FACE1_GLZ1,Surface Window Heat Gain Energy [J] !Hourly
680,1,ROOM_10533FFE..FACE1_GLZ1,Surface Window Heat Loss Energy [J] !Hourly
681,1,ROOM_10533FFE..FACE4_GLZ1,Surface Window Heat Gain Energy [J] !Hourly
682,1,ROOM_10533FFE..FACE4_GLZ1,Surface Window Heat Loss Energy [J] !Hourly
683,1,ROOM_2F65B023..FACE4_GLZ1,Surface Window Heat Gain Energy [J] !Hourly
684,1,ROOM_2F65B023..FACE4_GLZ1,Surface Window Heat Loss Energy [J] !Hourly
685,1,ROOM_2F65B023..FACE5_GLZ1,Surface Window Heat Gain Energy [J] !Hourly
686,1,ROOM_2F65B023..FACE5_GLZ1,Surface Window Heat Loss Energy [J] !Hourly
687,1,ROOM_316441DD..FACE1_GLZ1,Surface Window Heat Gain Energy [J] !Hourly
688,1,ROOM_316441DD..FACE1_GLZ1,Surface Window Heat Loss Energy [J] !Hourly
689,1,ROOM_316441DD..FACE2_GLZ1,Surface Window Heat Gain Energy [J] !Hourly
690,1,ROOM_316441DD..FACE2_GLZ1,Surface Window Heat Loss Energy [J] !Hourly
691,1,ROOM_8ABA2638..FACE3_GLZ1,Surface Window Heat Gain Energy [J] !Hourly
692,1,ROOM_8ABA2638..FACE3_GLZ1,Surface Window Heat Loss Energy [J] !Hourly
693,1,ROOM_90704E71..FACE3_GLZ1,Surface Window Heat Gain Energy [J] !Hourly
694,1,ROOM_90704E71..FACE3_GLZ1,Surface Window Heat Loss Energy [J] !Hourly
695,1,ROOM_90704E71..FACE4_GLZ1,Surface Window Heat Gain Energy [J] !Hourly
696,1,ROOM_90704E71..FACE4_GLZ1,Surface Window Heat Loss Energy [J] !Hourly
697,1,ROOM_AD814305..FACE3_GLZ1,Surface Window Heat Gain Energy [J] !Hourly
698,1,ROOM_AD814305..FACE3_GLZ1,Surface Window Heat Loss Energy [J] !Hourly
699,1,ROOM_B3BDC0BD..FACE3_GLZ1,Surface Window Heat Gain Energy [J] !Hourly
700,1,ROOM_B3BDC0BD..FACE3_GLZ1,Surface Window Heat Loss Energy [J] !Hourly
701,1,ROOM_B3BDC0BD..FACE4_GLZ1,Surface Window Heat Gain Energy [J] !Hourly
702,1,ROOM_B3BDC0BD..FACE4_GLZ1,Surface Window Heat Loss Energy [J] !Hourly
703,1,ROOM_B4EA8662..FACE2_GLZ1,Surface Window Heat Gain Energy [J] !Hourly
704,1,ROOM_B4EA8662..FACE2_GLZ1,Surface Window Heat Loss Energy [J] !Hourly
705,1,ROOM_B4EA8662..FACE3_GLZ1,Surface Window Heat Gain Energy [J] !Hourly
706,1,ROOM_B4EA8662..FACE3_GLZ1,Surface Window Heat Loss Energy [J] !Hourly
707,1,ROOM_CC86CFED..FACE1_GLZ1,Surface Window Heat Gain Energy [J] !Hourly
708,1,ROOM_CC86CFED..FACE1_GLZ1,Surface Window Heat Loss Energy [J] !Hourly
709,1,ROOM_CCA22579..FACE1_GLZ1,Surface Window Heat Gain Energy [J] !Hourly
710,1,ROOM_CCA22579..FACE1_GLZ1,Surface Window Heat Loss Energy [J] !Hourly
711,1,ROOM_CD20DD88..FACE2_GLZ1,Surface Window Heat Gain Energy [J] !Hourly
712,1,ROOM_CD20DD88..FACE2_GLZ1,Surface Window Heat Loss Energy [J] !Hourly
713,1,ROOM_CD20DD88..FACE3_GLZ1,Surface Window Heat Gain Energy [J] !Hourly
714,1,ROOM_CD20DD88..FACE3_GLZ1,Surface Window Heat Loss Energy [J] !Hourly
715,1,ROOM_D8420A82..FACE4_GLZ1,Surface Window Heat Gain Energy [J] !Hourly
716,1,ROOM_D8420A82..FACE4_GLZ1,Surface Window Heat Loss Energy [J] !Hourly
717,1,ROOM_D8420A82..FACE5_GLZ1,Surface Window Heat Gain Energy [J] !Hourly
718,1,ROOM_D8420A82..FACE5_GLZ1,Surface Window Heat Loss Energy [J] !Hourly
719,1,ROOM_FA41CB8E..FACE1_GLZ1,Surface Window Heat Gain Energy [J] !Hourly
720,1,ROOM_FA41CB8E..FACE1_GLZ1,Surface Window Heat Loss Energy [J] !Hourly
721,1,ROOM_10533FFE..FACE1,Surface Outside Face Solar Radiation Heat Gain Energy [J] !Hourly
722,1,ROOM_10533FFE..FACE1,Surface Average Face Conduction Heat Transfer Energy [J] !Hourly
723,1,ROOM_10533FFE..FACE2,Surface Average Face Conduction Heat Transfer Energy [J] !Hourly
724,1,ROOM_10533FFE..FACE3,Surface Average Face Conduction Heat Transfer Energy [J] !Hourly
725,1,ROOM_10533FFE..FACE4,Surface Outside Face Solar Radiation Heat Gain Energy [J] !Hourly
726,1,ROOM_10533FFE..FACE4,Surface Average Face Conduction Heat Transfer Energy [J] !Hourly
727,1,ROOM_10533FFE..FACE0,Surface Average Face Conduction Heat Transfer Energy [J] !Hourly
728,1,ROOM_10533FFE..FACE5,Surface Average Face Conduction Heat Transfer Energy [J] !Hourly
729,1,ROOM_2F65B023..FACE1,Surface Average Face Conduction Heat Transfer Energy [J] !Hourly
730,1,ROOM_2F65B023..FACE2,Surface Average Face Conduction Heat Transfer Energy [J] !Hourly
731,1,ROOM_2F65B023..FACE3,Surface Average Face Conduction Heat Transfer Energy [J] !Hourly
732,1,ROOM_2F65B023..FACE4,Surface Outside Face Solar Radiation Heat Gain Energy [J] !Hourly
733,1,ROOM_2F65B023..FACE4,Surface Average Face Conduction Heat Transfer Energy [J] !Hourly
734,1,ROOM_2F65B023..FACE5,Surface Outside Face Solar Radiation Heat Gain Energy [J] !Hourly
735,1,ROOM_2F65B023..FACE5,Surface Average Face Conduction Heat Transfer Energy [J] !Hourly
736,1,ROOM_2F65B023..FACE0,Surface Average Face Conduction Heat Transfer Energy [J] !Hourly
737,1,ROOM_2F65B023..FACE6,Surface Average Face Conduction Heat Transfer Energy [J] !Hourly
738,1,ROOM_316441DD..FACE1,Surface Outside Face Solar Radiation Heat Gain Energy [J] !Hourly
739,1,ROOM_316441DD..FACE1,Surface Average Face Conduction Heat Transfer Energy [J] !Hourly
740,1,ROOM_316441DD..FACE2,Surface Outside Face Solar Radiation Heat Gain Energy [J] !Hourly
741,1,ROOM_316441DD..FACE2,Surface Average Face Conduction Heat Transfer Energy [J] !Hourly
742,1,ROOM_316441DD..FACE3,Surface Average Face Conduction Heat Transfer Energy [J] !Hourly
743,1,ROOM_316441DD..FACE4,Surface Average Face Conduction Heat Transfer Energy [J] !Hourly
744,1,ROOM_316441DD..FACE5,Surface Average Face Conduction Heat Transfer Energy [J] !Hourly
745,1,ROOM_316441DD..FACE6,Surface Average Face Conduction Heat Transfer Energy [J] !Hourly
746,1,ROOM_316441DD..FACE0,Surface Average Face Conduction Heat Transfer Energy [J] !Hourly
747,1,ROOM_316441DD..FACE7,Surface Average Face Conduction Heat Transfer Energy [J] !Hourly
748,1,ROOM_8ABA2638..FACE1,Surface Average Face Conduction Heat Transfer Energy [J] !Hourly
749,1,ROOM_8ABA2638..FACE2,Surface Average Face Conduction Heat Transfer Energy [J] !Hourly
750,1,ROOM_8ABA2638..FACE3,Surface Outside Face Solar Radiation Heat Gain Energy [J] !Hourly
751,1,ROOM_8ABA2638..FACE3,Surface Average Face Conduction Heat Transfer Energy [J] !Hourly
752,1,ROOM_8ABA2638..FACE4,Surface Average Face Conduction Heat Transfer Energy [J] !Hourly
753,1,ROOM_8ABA2638..FACE0,Surface Average Face Conduction Heat Transfer Energy [J] !Hourly
754,1,ROOM_8ABA2638..FACE5,Surface Average Face Conduction Heat Transfer Energy [J] !Hourly
755,1,ROOM_90704E71..FACE1,Surface Average Face Conduction Heat Transfer Energy [J] !Hourly
756,1,ROOM_90704E71..FACE2,Surface Average Face Conduction Heat Transfer Energy [J] !Hourly
757,1,ROOM_90704E71..FACE3,Surface Outside Face Solar Radiation Heat Gain Energy [J] !Hourly
758,1,ROOM_90704E71..FACE3,Surface Average Face Conduction Heat Transfer Energy [J] !Hourly
759,1,ROOM_90704E71..FACE4,Surface Outside Face Solar Radiation Heat Gain Energy [J] !Hourly
760,1,ROOM_90704E71..FACE4,Surface Average Face Conduction Heat Transfer Energy [J] !Hourly
761,1,ROOM_90704E71..FACE5,Surface Average Face Conduction Heat Transfer Energy [J] !Hourly
762,1,ROOM_90704E71..FACE6,Surface Average Face Conduction Heat Transfer Energy [J] !Hourly
763,1,ROOM_90704E71..FACE0,Surface Average Face Conduction Heat Transfer Energy [J] !Hourly
764,1,ROOM_90704E71..FACE7,Surface Average Face Conduction Heat Transfer Energy [J] !Hourly
765,1,ROOM_9593F6F2..FACE1,Surface Average Face Conduction Heat Transfer Energy [J] !Hourly
766,1,ROOM_9593F6F2..FACE2,Surface Average Face Conduction Heat Transfer Energy [J] !Hourly
767,1,ROOM_9593F6F2..FACE3,Surface Average Face Conduction Heat Transfer Energy [J] !Hourly
768,1,ROOM_9593F6F2..FACE4,Surface Average Face Conduction Heat Transfer Energy [J] !Hourly
769,1,ROOM_9593F6F2..FACE0,Surface Average Face Conduction Heat Transfer Energy [J] !Hourly
770,1,ROOM_9593F6F2..FACE5,Surface Average Face Conduction Heat Transfer Energy [J] !Hourly
771,1,ROOM_AD814305..FACE1,Surface Average Face Conduction Heat Transfer Energy [J] !Hourly
772,1,ROOM_AD814305..FACE2,Surface Average Face Conduction Heat Transfer Energy [J] !Hourly
773,1,ROOM_AD814305..FACE3,Surface Outside Face Solar Radiation Heat Gain Energy [J] !Hourly
774,1,ROOM_AD814305..FACE3,Surface Average Face Conduction Heat Transfer Energy [J] !Hourly
775,1,ROOM_AD814305..FACE0,Surface Average Face Conduction Heat Transfer Energy [J] !Hourly
776,1,ROOM_AD814305..FACE4,Surface Average Face Conduction Heat Transfer Energy [J] !Hourly
777,1,ROOM_B3BDC0BD..FACE1,Surface Average Face Conduction Heat Transfer Energy [J] !Hourly
778,1,ROOM_B3BDC0BD..FACE2,Surface Average Face Conduction Heat Transfer Energy [J] !Hourly
779,1,ROOM_B3BDC0BD..FACE3,Surface Outside Face Solar Radiation Heat Gain Energy [J] !Hourly
780,1,ROOM_B3BDC0BD..FACE3,Surface Average Face Conduction Heat Transfer Energy [J] !Hourly
781,1,ROOM_B3BDC0BD..FACE4,Surface Outside Face Solar Radiation Heat Gain Energy [J] !Hourly
782,1,ROOM_B3BDC0BD..FACE4,Surface Average Face Conduction Heat Transfer Energy [J] !Hourly
783,1,ROOM_B3BDC0BD..FACE0,Surface Average Face Conduction Heat Transfer Energy [J] !Hourly
784,1,ROOM_B3BDC0BD..FACE5,Surface Average Face Conduction Heat Transfer Energy [J] !Hourly
785,1,ROOM_B4EA8662..FACE1,Surface Average Face Conduction Heat Transfer Energy [J] !Hourly
786,1,ROOM_B4EA8662..FACE2,Surface Outside Face Solar Radiation Heat Gain Energy [J] !Hourly
787,1,ROOM_B4EA8662..FACE2,Surface Average Face Conduction Heat Transfer Energy [J] !Hourly
788,1,ROOM_B4EA8662..FACE3,Surface Outside Face Solar Radiation Heat Gain Energy [J] !Hourly
789,1,ROOM_B4EA8662..FACE3,Surface Average Face Conduction Heat Transfer Energy [J] !Hourly
790,1,ROOM_B4EA8662..FACE4,Surface Average Face Conduction Heat Transfer Energy [J] !Hourly
791,1,ROOM_B4EA8662..FACE0,Surface Average Face Conduction Heat Transfer Energy [J] !Hourly
792,1,ROOM_B4EA8662..FACE5,Surface Average Face Conduction Heat Transfer Energy [J] !Hourly
793,1,ROOM_CC86CFED..FACE1,Surface Outside Face Solar Radiation Heat Gain Energy [J] !Hourly
794,1,ROOM_CC86CFED..FACE1,Surface Average Face Conduction Heat Transfer Energy [J] !Hourly
795,1,ROOM_CC86CFED..FACE2,Surface Average Face Conduction Heat Transfer Energy [J] !Hourly
796,1,ROOM_CC86CFED..FACE3,Surface Average Face Conduction Heat Transfer Energy [J] !Hourly
797,1,ROOM_CC86CFED..FACE4,Surface Average Face Conduction Heat Transfer Energy [J] !Hourly
798,1,ROOM_CC86CFED..FACE0,Surface Average Face Conduction Heat Transfer Energy [J] !Hourly
799,1,ROOM_CC86CFED..FACE5,Surface Average Face Conduction Heat Transfer Energy [J] !Hourly
800,1,ROOM_CCA22579..FACE1,Surface Outside Face Solar Radiation Heat Gain Energy [J] !Hourly
801,1,ROOM_CCA22579..FACE1,Surface Average Face Conduction Heat Transfer Energy [J] !Hourly
802,1,ROOM_CCA22579..FACE2,Surface Average Face Conduction Heat Transfer Energy [J] !Hourly
803,1,ROOM_CCA22579..FACE3,Surface Average Face Conduction Heat Transfer Energy [J] !Hourly
804,1,ROOM_CCA22579..FACE4,Surface Average Face Conduction Heat Transfer Energy [J] !Hourly
805,1,ROOM_CCA22579..FACE5,Surface Average Face Conduction Heat Transfer Energy [J] !Hourly
806,1,ROOM_CCA22579..FACE0,Surface Average Face Conduction Heat Transfer Energy [J] !Hourly
807,1,ROOM_CCA22579..FACE6,Surface Average Face Conduction Heat Transfer Energy [J] !Hourly
808,1,ROOM_CD20DD88..FACE1,Surface Average Face Conduction Heat Transfer Energy [J] !Hourly
809,1,ROOM_CD20DD88..FACE2,Surface Outside Face Solar Radiation Heat Gain Energy [J] !Hourly
810,1,ROOM_CD20DD88..FACE2,Surface Average Face Conduction Heat Transfer Energy [J] !Hourly
811,1,ROOM_CD20DD88..FACE3,Surface Outside Face Solar Radiation Heat Gain Energy [J] !Hourly
812,1,ROOM_CD20DD88..FACE3,Surface Average Face Conduction Heat Transfer Energy [J] !Hourly
813,1,ROOM_CD20DD88..FACE4,Surface Average Face Conduction Heat Transfer Energy [J] !Hourly
814,1,ROOM_CD20DD88..FACE0,Surface Average Face Conduction Heat Transfer Energy [J] !Hourly
815,1,ROOM_CD20DD88..FACE5,Surface Average Face Conduction Heat Transfer Energy [J] !Hourly
816,1,ROOM_D0055766..FACE1,Surface Average Face Conduction Heat Transfer Energy [J] !Hourly
817,1,ROOM_D0055766..FACE2,Surface Average Face Conduction Heat Transfer Energy [J] !Hourly
818,1,ROOM_D0055766..FACE3,Surface Average Face Conduction Heat Transfer Energy [J] !Hourly
819,1,ROOM_D0055766..FACE4,Surface Average Face Conduction Heat Transfer Energy [J] !Hourly
820,1,ROOM_D0055766..FACE5,Surface Average Face Conduction Heat Transfer Energy [J] !Hourly
821,1,ROOM_D0055766..FACE6,Surface Average Face Conduction Heat Transfer Energy [J] !Hourly
822,1,ROOM_D0055766..FACE0,Surface Average Face Conduction Heat Transfer Energy [J] !Hourly
823,1,ROOM_D0055766..FACE7,Surface Average Face Conduction Heat Transfer Energy [J] !Hourly
824,1,ROOM_D8420A82..FACE1,Surface Average Face Conduction Heat Transfer Energy [J] !Hourly
825,1,ROOM_D8420A82..FACE2,Surface Average Face Conduction Heat Transfer Energy [J] !Hourly
826,1,ROOM_D8420A82..FACE3,Surface Average Face Conduction Heat Transfer Energy [J] !Hourly
827,1,ROOM_D8420A82..FACE4,Surface Outside Face Solar Radiation Heat Gain Energy [J] !Hourly
828,1,ROOM_D8420A82..FACE4,Surface Average Face Conduction Heat Transfer Energy [J] !Hourly
829,1,ROOM_D8420A82..FACE5,Surface Outside Face Solar Radiation Heat Gain Energy [J] !Hourly
830,1,ROOM_D8420A82..FACE5,Surface Average Face Conduction Heat Transfer Energy [J] !Hourly
831,1,ROOM_D8420A82..FACE6,Surface Average Face Conduction Heat Transfer Energy [J] !Hourly
832,1,ROOM_D8420A82..FACE7,Surface Average Face Conduction Heat Transfer Energy [J] !Hourly
833,1,ROOM_D8420A82..FACE0,Surface Average Face Conduction Heat Transfer Energy [J] !Hourly
834,1,ROOM_D8420A82..FACE8,Surface Average Face Conduction Heat Transfer Energy [J] !Hourly
835,1,ROOM_FA41CB8E..FACE1,Surface Outside Face Solar Radiation Heat Gain Energy [J] !Hourly
836,1,ROOM_FA41CB8E..FACE1,Surface Average Face Conduction Heat Transfer Energy [J] !Hourly
837,1,ROOM_FA41CB8E..FACE2,Surface Average Face Conduction Heat Transfer Energy [J] !Hourly
838,1,ROOM_FA41CB8E..FACE3,Surface Average Face Conduction Heat Transfer Energy [J] !Hourly
839,1,ROOM_FA41CB8E..FACE4,Surface Average Face Conduction Heat Transfer Energy [J] !Hourly
840,1,ROOM_FA41CB8E..FACE5,Surface Average Face Conduction Heat Transfer Energy [J] !Hourly
841,1,ROOM_FA41CB8E..FACE0,Surface Average Face Conduction Heat Transfer Energy [J] !Hourly
842,1,ROOM_FA41CB8E..FACE6,Surface Average Face Conduction Heat Transfer Energy [J] !Hourly
843,1,ROOM_10533FFE,Zone Infiltration Total Heat Loss Energy [J] !Hourly
844,1,ROOM_10533FFE,Zone Infiltration Total Heat Gain Energy [J] !Hourly
845,1,ROOM_2F65B023,Zone Infiltration Total Heat Loss Energy [J] !Hourly
846,1,ROOM_2F65B023,Zone Infiltration Total Heat Gain Energy [J] !Hourly
847,1,ROOM_316441DD,Zone Infiltration Total Heat Loss Energy [J] !Hourly
848,1,ROOM_316441DD,Zone Infiltration Total Heat Gain Energy [J] !Hourly
849,1,ROOM_8ABA2638,Zone Infiltration Total Heat Loss Energy [J] !Hourly
850,1,ROOM_8ABA2638,Zone Infiltration Total Heat Gain Energy [J] !Hourly
851,1,ROOM_90704E71,Zone Infiltration Total Heat Loss Energy [J] !Hourly
852,1,ROOM_90704E71,Zone Infiltration Total Heat Gain Energy [J] !Hourly
853,1,ROOM_9593F6F2,Zone Infiltration Total Heat Loss Energy [J] !Hourly
854,1,ROOM_9593F6F2,Zone Infiltration Total Heat Gain Energy [J] !Hourly
855,1,ROOM_AD814305,Zone Infiltration Total Heat Loss Energy [J] !Hourly
856,1,ROOM_AD814305,Zone Infiltration Total Heat Gain Energy [J] !Hourly
857,1,ROOM_B3BDC0BD,Zone Infiltration Total Heat Loss Energy [J] !Hourly
858,1,ROOM_B3BDC0BD,Zone Infiltration Total Heat Gain Energy [J] !Hourly
859,1,ROOM_B4EA8662,Zone Infiltration Total Heat Loss Energy [J] !Hourly
860,1,ROOM_B4EA8662,Zone Infiltration Total Heat Gain Energy [J] !Hourly
861,1,ROOM_CC86CFED,Zone Infiltration Total Heat Loss Energy [J] !Hourly
862,1,ROOM_CC86CFED,Zone Infiltration Total Heat Gain Energy [J] !Hourly
863,1,ROOM_CCA22579,Zone Infiltration Total Heat Loss Energy [J] !Hourly
864,1,ROOM_CCA22579,Zone Infiltration Total Heat Gain Energy [J] !Hourly
865,1,ROOM_CD20DD88,Zone Infiltration Total Heat Loss Energy [J] !Hourly
866,1,ROOM_CD20DD88,Zone Infiltration Total Heat Gain Energy [J] !Hourly
867,1,ROOM_D0055766,Zone Infiltration Total Heat Loss Energy [J] !Hourly
868,1,ROOM_D0055766,Zone Infiltration Total Heat Gain Energy [J] !Hourly
869,1,ROOM_D8420A82,Zone Infiltration Total Heat Loss Energy [J] !Hourly
870,1,ROOM_D8420A82,Zone Infiltration Total Heat Gain Energy [J] !Hourly
871,1,ROOM_FA41CB8E,Zone Infiltration Total Heat Loss Energy [J] !Hourly
872,1,ROOM_FA41CB8E,Zone Infiltration Total Heat Gain Energy [J] !Hourly
1662,1,ROOM_10533FFE IDEAL LOADS AIR SYSTEM,Zone Ideal Loads Supply Air Total Heating Energy [J] !Hourly
1711,1,ROOM_10533FFE IDEAL LOADS AIR SYSTEM,Zone Ideal Loads Supply Air Total Cooling Energy [J] !Hourly
1760,1,ROOM_10533FFE IDEAL LOADS AIR SYSTEM,Zone Ideal Loads Zone Total Heating Energy [J] !Hourly
1761,1,ROOM_10533FFE IDEAL LOADS AIR SYSTEM,Zone Ideal Loads Zone Total Cooling Energy [J] !Hourly
1762,1,ROOM_2F65B023 IDEAL LOADS AIR SYSTEM,Zone Ideal Loads Supply Air Total Heating Energy [J] !Hourly
1763,1,ROOM_2F65B023 IDEAL LOADS AIR SYSTEM,Zone Ideal Loads Supply Air Total Cooling Energy [J] !Hourly
1764,1,ROOM_2F65B023 IDEAL LOADS AIR SYSTEM,Zone Ideal Loads Zone Total Heating Energy [J] !Hourly
1765,1,ROOM_2F65B023 IDEAL LOADS AIR SYSTEM,Zone Ideal Loads Zone Total Cooling Energy [J] !Hourly
1766,1,ROOM_316441DD IDEAL LOADS AIR SYSTEM,Zone Ideal Loads Supply Air Total Heating Energy [J] !Hourly
1767,1,ROOM_316441DD IDEAL LOADS AIR SYSTEM,Zone Ideal Loads Supply Air Total Cooling Energy [J] !Hourly
1768,1,ROOM_316441DD IDEAL LOADS AIR SYSTEM,Zone Ideal Loads Zone Total Heating Energy [J] !Hourly
1769,1,ROOM_316441DD IDEAL LOADS AIR SYSTEM,Zone Ideal Loads Zone Total Cooling Energy [J] !Hourly
1770,1,ROOM_8ABA2638 IDEAL LOADS AIR SYSTEM,Zone Ideal Loads Supply Air Total Heating Energy [J] !Hourly
1771,1,ROOM_8ABA2638 IDEAL LOADS AIR SYSTEM,Zone Ideal Loads Supply Air Total Cooling Energy [J] !Hourly
1772,1,ROOM_8ABA2638 IDEAL LOADS AIR SYSTEM,Zone Ideal Loads Zone Total Heating Energy [J] !Hourly
1773,1,ROOM_8ABA2638 IDEAL LOADS AIR SYSTEM,Zone Ideal Loads Zone Total Cooling Energy [J] !Hourly
1774,1,ROOM_90704E71 IDEAL LOADS AIR SYSTEM,Zone Ideal Loads Supply Air Total Heating Energy [J] !Hourly
1775,1,ROOM_90704E71 IDEAL LOADS AIR SYSTEM,Zone Ideal Loads Supply Air Total Cooling Energy [J] !Hourly
1776,1,ROOM_90704E71 IDEAL LOADS AIR SYSTEM,Zone Ideal Loads Zone Total Heating Energy [J] !Hourly
1777,1,ROOM_90704E71 IDEAL LOADS AIR SYSTEM,Zone Ideal Loads Zone Total Cooling Energy [J] !Hourly
1778,1,ROOM_9593F6F2 IDEAL LOADS AIR SYSTEM,Zone Ideal Loads Supply Air Total Heating Energy [J] !Hourly
1779,1,ROOM_9593F6F2 IDEAL LOADS AIR SYSTEM,Zone Ideal Loads Supply Air Total Cooling Energy [J] !Hourly
1780,1,ROOM_9593F6F2 IDEAL LOADS AIR SYSTEM,Zone Ideal Loads Zone Total Heating Energy [J] !Hourly
1781,1,ROOM_9593F6F2 IDEAL LOADS AIR SYSTEM,Zone Ideal Loads Zone Total Cooling Energy [J] !Hourly
1782,1,ROOM_AD814305 IDEAL LOADS AIR SYSTEM,Zone Ideal Loads Supply Air Total Heating Energy [J] !Hourly
1783,1,ROOM_AD814305 IDEAL LOADS AIR SYSTEM,Zone Ideal Loads Supply Air Total Cooling Energy [J] !Hourly
1784,1,ROOM_AD814305 IDEAL LOADS AIR SYSTEM,Zone Ideal Loads Zone Total Heating Energy [J] !Hourly
1785,1,ROOM_AD814305 IDEAL LOADS AIR SYSTEM,Zone Ideal Loads Zone Total Cooling Energy [J] !Hourly
1786,1,ROOM_B3BDC0BD IDEAL LOADS AIR SYSTEM,Zone Ideal Loads Supply Air Total Heating Energy [J] !Hourly
1787,1,ROOM_B3BDC0BD IDEAL LOADS AIR SYSTEM,Zone Ideal Loads Supply Air Total Cooling Energy [J] !Hourly
1788,1,ROOM_B3BDC0BD IDEAL LOADS AIR SYSTEM,Zone Ideal Loads Zone Total Heating Energy [J] !Hourly
1789,1,ROOM_B3BDC0BD IDEAL LOADS AIR SYSTEM,Zone Ideal Loads Zone Total Cooling Energy [J] !Hourly
1790,1,ROOM_B4EA8662 IDEAL LOADS AIR SYSTEM,Zone Ideal Loads Supply Air Total Heating Energy [J] !Hourly
1791,1,ROOM_B4EA8662 IDEAL LOADS AIR SYSTEM,Zone Ideal Loads Supply Air Total Cooling Energy [J] !Hourly
1792,1,ROOM_B4EA8662 IDEAL LOADS AIR SYSTEM,Zone Ideal Loads Zone Total Heating Energy [J] !Hourly
1793,1,ROOM_B4EA8662 IDEAL LOADS AIR SYSTEM,Zone Ideal Loads Zone Total Cooling Energy [J] !Hourly
1794,1,ROOM_CC86CFED IDEAL LOADS AIR SYSTEM,Zone Ideal Loads Supply Air Total Heating Energy [J] !Hourly
1795,1,ROOM_CC86CFED IDEAL LOADS AIR SYSTEM,Zone Ideal Loads Supply Air Total Cooling Energy [J] !Hourly
1796,1,ROOM_CC86CFED IDEAL LOADS AIR SYSTEM,Zone Ideal Loads Zone Total Heating Energy [J] !Hourly
1797,1,ROOM_CC86CFED IDEAL LOADS AIR SYSTEM,Zone Ideal Loads Zone Total Cooling Energy [J] !Hourly
1798,1,ROOM_CCA22579 IDEAL LOADS AIR SYSTEM,Zone Ideal Loads Supply Air Total Heating Energy [J] !Hourly
1799,1,ROOM_CCA22579 IDEAL LOADS AIR SYSTEM,Zone Ideal Loads Supply Air Total Cooling Energy [J] !Hourly
1800,1,ROOM_CCA22579 IDEAL LOADS AIR SYSTEM,Zone Ideal Loads Zone Total Heating Energy [J] !Hourly
1801,1,ROOM_CCA22579 IDEAL LOADS AIR SYSTEM,Zone Ideal Loads Zone Total Cooling Energy [J] !Hourly
1802,1,ROOM_CD20DD88 IDEAL LOADS AIR SYSTEM,Zone Ideal Loads Supply Air Total Heating Energy [J] !Hourly
1803,1,ROOM_CD20DD88 IDEAL LOADS AIR SYSTEM,Zone Ideal Loads Supply Air Total Cooling Energy [J] !Hourly
1804,1,ROOM_CD20DD88 IDEAL LOADS AIR SYSTEM,Zone Ideal Loads Zone Total Heating Energy [J] !Hourly
1805,1,ROOM_CD20DD88 IDEAL LOADS AIR SYSTEM,Zone Ideal Loads Zone Total Cooling Energy [J] !Hourly
1806,1,ROOM_D0055766 IDEAL LOADS AIR SYSTEM,Zone Ideal Loads Supply Air Total Heating Energy [J] !Hourly
1807,1,ROOM_D0055766 IDEAL LOADS AIR SYSTEM,Zone Ideal Loads Supply Air Total Cooling Energy [J] !Hourly
1808,1,ROOM_D0055766 IDEAL LOADS AIR SYSTEM,Zone Ideal Loads Zone Total Heating Energy [J] !Hourly
1809,1,ROOM_D0055766 IDEAL LOADS AIR SYSTEM,Zone Ideal Loads Zone Total Cooling Energy [J] !Hourly
1810,1,ROOM_D8420A82 IDEAL LOADS AIR SYSTEM,Zone Ideal Loads Supply Air Total Heating Energy [J] !Hourly
1811,1,ROOM_D8420A82 IDEAL LOADS AIR SYSTEM,Zone Ideal Loads Supply Air Total Cooling Energy [J] !Hourly
1812,1,ROOM_D8420A82 IDEAL LOADS AIR SYSTEM,Zone Ideal Loads Zone Total Heating Energy [J] !Hourly
1813,1,ROOM_D8420A82 IDEAL LOADS AIR SYSTEM,Zone Ideal Loads Zone Total Cooling Energy [J] !Hourly
1814,1,ROOM_FA41CB8E IDEAL LOADS AIR SYSTEM,Zone Ideal Loads Supply Air Total Heating Energy [J] !Hourly
1815,1,ROOM_FA41CB8E IDEAL LOADS AIR SYSTEM,Zone Ideal Loads Supply Air Total Cooling Energy [J] !Hourly
1816,1,ROOM_FA41CB8E IDEAL LOADS AIR SYSTEM,Zone Ideal Loads Zone Total Heating Energy [J] !Hourly
1817,1,ROOM_FA41CB8E IDEAL LOADS AIR SYSTEM,Zone Ideal Loads Zone Total Cooling Energy [J] !Hourly
End of Data Dictionary
1,RUN PERIOD 1,  42.37, -71.02,  -5.00,   6.00
2,1, 1, 1, 0, 1, 0.00,60.00,Sunday
7,0.0
8,0.0
9,0.0
10,0.0
11,0.0
12,0.0
13,0.0
14,0.0
15,0.0
16,0.0
17,0.0
18,0.0
19,0.0
20,0.0
21,0.0
664,0.0
665,0.0
666,0.0
667,0.0
668,0.0
669,0.0
670,0.0
671,0.0
672,0.0
673,0.0
674,0.0
675,0.0
676,0.0
677,0.0
678,0.0
679,0.0
680,257274.8430259568
681,0.0
682,282405.57209394508
683,0.0
684,245124.2796626922
685,0.0
686,256069.3935774812
687,0.0
688,365814.7991341514
689,0.0
690,134910.648227705
691,0.0
692,195428.00354341084
693,0.0
694,224954.55098958213
695,0.0
696,142821.08389838978
697,0.0
698,96843.79883516328
699,0.0
700,187182.57909235563
701,0.0
702,137580.5503541193
703,0.0
704,469358.3593832994
705,0.0
706,423836.8223855503
707,0.0
708,160039.4577619405
709,0.0
710,365475.5315280977
711,0.0
712,149043.5450084101
713,0.0
714,119362.76156766199
715,0.0
716,363169.3816017103
717,0.0
718,163033.92456803827
719,0.0
720,408131.03544404808
721,0.0
722,-476883.005239306
723,23081.48157753607
724,-3660.846854908201
725,0.0
726,-268803.5166450241
727,237088.74051779224
728,36547.129093927455
729,21041.736342441025
730,7442.173292597177
731,4868.172259689155
732,0.0
733,-109659.00527672115
734,0.0
735,-244197.2061993122
736,78215.1757172718
737,7864.293804736325
738,0.0
739,-687423.1463042359
740,0.0
741,-96116.46285247288
742,-15425.688756420162
743,-22962.479304093427
744,-4613.5599286842229
745,12775.092718087342
746,228931.7601194238
747,33480.60554500233
748,20580.15890319873
749,4521.4704181067859
750,0.0
751,-84219.54400064056
752,-7385.762754597059
753,13002.54435905186
754,1610.1268734469482
755,2031.1709433675754
756,15973.025952092146
757,0.0
758,-413806.34988719937
759,0.0
760,-105695.10533068139
761,4862.407225521337
762,-16631.969984691565
763,182715.02947288604
764,29536.847764675796
765,7577.142973675455
766,554.3366257799216
767,-12815.311562633433
768,-14.897863480139645
769,9600.175540516677
770,2625.1206368345067
771,22675.86363440035
772,5029.415421783705
773,0.0
774,-41556.80622202809
775,1735.8964254029714
776,294.489650272325
777,25191.2676807444
778,-3594.1060103412189
779,0.0
780,-80198.67460224538
781,0.0
782,-62735.341320458654
783,22522.573322473632
784,3101.0391966859208
785,51814.055196170026
786,0.0
787,-274625.0480151822
788,0.0
789,-188483.60622383067
790,11298.057379851467
791,110368.22244952749
792,13574.234994738796
793,0.0
794,-149466.42758185575
795,11230.440102864855
796,9042.798752894934
797,-20506.788969826513
798,48599.14214711083
799,8826.91283524828
800,0.0
801,-665224.0437216808
802,-6403.9764704934809
803,-2989.5886199943286
804,-6305.548489248363
805,-12308.406758422138
806,278596.7668977936
807,45590.75838127001
808,16756.47183083996
809,0.0
810,-104336.58444445356
811,0.0
812,-52217.678942194354
813,117.67268772785394
814,24478.157774549494
815,2544.333337130947
816,11995.624882943846
817,1982.1574457634934
818,-7584.001948256782
819,-19982.126496635618
820,-7281.678039539818
821,-6149.074991586684
822,14284.95461487618
823,4316.357637279836
824,14095.618498589305
825,19498.92743093893
826,-15295.592747544213
827,0.0
828,-161066.72303079366
829,0.0
830,-90310.58925562861
831,-5965.208371499208
832,8374.48112080629
833,59436.2875331603
834,8398.165835817017
835,0.0
836,-680844.9802187234
837,-6471.460043688837
838,-22121.440413928958
839,-44885.922522819004
840,4031.9243165697396
841,280574.78357294588
842,44590.56883877799
843,327647.5845190769
844,0.0
845,319702.99537346549
846,0.0
847,309504.6167711127
848,0.0
849,123723.7888118441
850,0.0
851,222918.05494160154
852,0.0
853,0.0
854,0.0
855,71312.39834204741
856,0.0
857,222984.18493260403
858,0.0
859,568164.6266780545
860,0.0
861,97467.71457115868
862,0.0
863,214683.45357660025
864,0.0
865,177214.63051248654
866,0.0
867,0.0
868,0.0
869,329960.66069389789
870,0.0