Program Version,EnergyPlus, Version 9.3.0-baff08990c, YMD=2021.04.24 21:16
1,5,Environment Title[],Latitude[deg],Longitude[deg],Time Zone[],Elevation[m]
2,8,Day of Simulation[],Month[],Day of Month[],DST Indicator[1=yes 0=no],Hour[],StartMinute[],EndMinute[],DayType
3,5,Cumulative Day of Simulation[],Month[],Day of Month[],DST Indicator[1=yes 0=no],DayType  ! When Daily Report Variables Requested
4,2,Cumulative Days of Simulation[],Month[]  ! When Monthly Report Variables Requested
5,1,Cumulative Days of Simulation[] ! When Run Period Report Variables Requested
6,1,Calendar Year of Simulation[] ! When Annual Report Variables Requested
7,1,ROOM_1FED0393,Zone People Total Heating Energy [J] !Hourly
8,1,ROOM_3491F28E,Zone People Total Heating Energy [J] !Hourly
9,1,ROOM_4101CB5C,Zone People Total Heating Energy [J] !Hourly
10,1,ROOM_46DD494C,Zone People Total Heating Energy [J] !Hourly
11,1,ROOM_67B73CDB,Zone People Total Heating Energy [J] !Hourly
12,1,ROOM_72ED9C31,Zone People Total Heating Energy [J] !Hourly
13,1,ROOM_7CF73752,Zone People Total Heating Energy [J] !Hourly
14,1,ROOM_7EB284F1,Zone People Total Heating Energy [J] !Hourly
15,1,ROOM_85E48ABC,Zone People Total Heating Energy [J] !Hourly
16,1,ROOM_EDFC232E,Zone People Total Heating Energy [J] !Hourly
17,1,ROOM_F82A55C4,Zone People Total Heating Energy [J] !Hourly
508,1,ROOM_1FED0393,Zone Windows Total Transmitted Solar Radiation Energy [J] !Hourly
509,1,ROOM_3491F28E,Zone Windows Total Transmitted Solar Radiation Energy [J] !Hourly
510,1,ROOM_4101CB5C,Zone Windows Total Transmitted Solar Radiation Energy [J] !Hourly
511,1,ROOM_46DD494C,Zone Windows Total Transmitted Solar Radiation Energy [J] !Hourly
512,1,ROOM_67B73CDB,Zone Windows Total Transmitted Solar Radiation Energy [J] !Hourly
513,1,ROOM_72ED9C31,Zone Windows Total Transmitted Solar Radiation Energy [J] !Hourly
514,1,ROOM_7CF73752,Zone Windows Total Transmitted Solar Radiation Energy [J] !Hourly
515,1,ROOM_7EB284F1,Zone Windows Total Transmitted Solar Radiation Energy [J] !Hourly
516,1,ROOM_85E48ABC,Zone Windows Total Transmitted Solar Radiation Energy [J] !Hourly
517,1,ROOM_EDFC232E,Zone Windows Total Transmitted Solar Radiation Energy [J] !Hourly
518,1,ROOM_F82A55C4,Zone Windows Total Transmitted Solar Radiation Energy [J] !Hourly
519,1,ROOM_1FED0393..FACE2_GLZ1,Surface Window Heat Gain Energy [J] !Hourly
520,1,ROOM_1FED0393..FACE2_GLZ1,Surface Window Heat Loss Energy [J] !Hourly
521,1,ROOM_3491F28E..FACE2_GLZ1,Surface Window Heat Gain Energy [J] !Hourly
522,1,ROOM_3491F28E..FACE2_GLZ1,Surface Window Heat Loss Energy [J] !Hourly
523,1,ROOM_3491F28E..FACE3_GLZ1,Surface Window Heat Gain Energy [J] !Hourly
524,1,ROOM_3491F28E..FACE3_GLZ1,Surface Window Heat Loss Energy [J] !Hourly
525,1,ROOM_3491F28E..FACE4_GLZ1,Surface Window Heat Gain Energy [J] !Hourly
526,1,ROOM_3491F28E..FACE4_GLZ1,Surface Window Heat Loss Energy [J] !Hourly
527,1,ROOM_3491F28E..FACE5_GLZ1,Surface Window Heat Gain Energy [J] !Hourly
528,1,ROOM_3491F28E..FACE5_GLZ1,Surface Window Heat Loss Energy [J] !Hourly
529,1,ROOM_4101CB5C..FACE2_GLZ1,Surface Window Heat Gain Energy [J] !Hourly
530,1,ROOM_4101CB5C..FACE2_GLZ1,Surface Window Heat Loss Energy [J] !Hourly
531,1,ROOM_4101CB5C..FACE3_GLZ1,Surface Window Heat Gain Energy [J] !Hourly
532,1,ROOM_4101CB5C..FACE3_GLZ1,Surface Window Heat Loss Energy [J] !Hourly
533,1,ROOM_46DD494C..FACE1_GLZ1,Surface Window Heat Gain Energy [J] !Hourly
534,1,ROOM_46DD494C..FACE1_GLZ1,Surface Window Heat Loss Energy [J] !Hourly
535,1,ROOM_46DD494C..FACE3_GLZ1,Surface Window Heat Gain Energy [J] !Hourly
536,1,ROOM_46DD494C..FACE3_GLZ1,Surface Window Heat Loss Energy [J] !Hourly
537,1,ROOM_46DD494C..FACE4_GLZ1,Surface Window Heat Gain Energy [J] !Hourly
538,1,ROOM_46DD494C..FACE4_GLZ1,Surface Window Heat Loss Energy [J] !Hourly
539,1,ROOM_46DD494C..FACE5_GLZ1,Surface Window Heat Gain Energy [J] !Hourly
540,1,ROOM_46DD494C..FACE5_GLZ1,Surface Window Heat Loss Energy [J] !Hourly
541,1,ROOM_67B73CDB..FACE1_GLZ1,Surface Window Heat Gain Energy [J] !Hourly
542,1,ROOM_67B73CDB..FACE1_GLZ1,Surface Window Heat Loss Energy [J] !Hourly
543,1,ROOM_67B73CDB..FACE2_GLZ1,Surface Window Heat Gain Energy [J] !Hourly
544,1,ROOM_67B73CDB..FACE2_GLZ1,Surface Window Heat Loss Energy [J] !Hourly
545,1,ROOM_67B73CDB..FACE4_GLZ1,Surface Window Heat Gain Energy [J] !Hourly
546,1,ROOM_67B73CDB..FACE4_GLZ1,Surface Window Heat Loss Energy [J] !Hourly
547,1,ROOM_72ED9C31..FACE2_GLZ1,Surface Window Heat Gain Energy [J] !Hourly
548,1,ROOM_72ED9C31..FACE2_GLZ1,Surface Window Heat Loss Energy [J] !Hourly
549,1,ROOM_72ED9C31..FACE3_GLZ1,Surface Window Heat Gain Energy [J] !Hourly
550,1,ROOM_72ED9C31..FACE3_GLZ1,Surface Window Heat Loss Energy [J] !Hourly
551,1,ROOM_72ED9C31..FACE5_GLZ1,Surface Window Heat Gain Energy [J] !Hourly
552,1,ROOM_72ED9C31..FACE5_GLZ1,Surface Window Heat Loss Energy [J] !Hourly
553,1,ROOM_72ED9C31..FACE6_GLZ1,Surface Window Heat Gain Energy [J] !Hourly
554,1,ROOM_72ED9C31..FACE6_GLZ1,Surface Window Heat Loss Energy [J] !Hourly
555,1,ROOM_7CF73752..FACE1_GLZ1,Surface Window Heat Gain Energy [J] !Hourly
556,1,ROOM_7CF73752..FACE1_GLZ1,Surface Window Heat Loss Energy [J] !Hourly
557,1,ROOM_7CF73752..FACE2_GLZ1,Surface Window Heat Gain Energy [J] !Hourly
558,1,ROOM_7CF73752..FACE2_GLZ1,Surface Window Heat Loss Energy [J] !Hourly
559,1,ROOM_7CF73752..FACE3_GLZ1,Surface Window Heat Gain Energy [J] !Hourly
560,1,ROOM_7CF73752..FACE3_GLZ1,Surface Window Heat Loss Energy [J] !Hourly
561,1,ROOM_7CF73752..FACE4_GLZ1,Surface Window Heat Gain Energy [J] !Hourly
562,1,ROOM_7CF73752..FACE4_GLZ1,Surface Window Heat Loss Energy [J] !Hourly
563,1,ROOM_7EB284F1..FACE3_GLZ1,Surface Window Heat Gain Energy [J] !Hourly
564,1,ROOM_7EB284F1..FACE3_GLZ1,Surface Window Heat Loss Energy [J] !Hourly
565,1,ROOM_7EB284F1..FACE4_GLZ1,Surface Window Heat Gain Energy [J] !Hourly
566,1,ROOM_7EB284F1..FACE4_GLZ1,Surface Window Heat Loss Energy [J] !Hourly
567,1,ROOM_85E48ABC..FACE6_GLZ1,Surface Window Heat Gain Energy [J] !Hourly
568,1,ROOM_85E48ABC..FACE6_GLZ1,Surface Window Heat Loss Energy [J] !Hourly
569,1,ROOM_EDFC232E..FACE1_GLZ1,Surface Window Heat Gain Energy [J] !Hourly
570,1,ROOM_EDFC232E..FACE1_GLZ1,Surface Window Heat Loss Energy [J] !Hourly
571,1,ROOM_EDFC232E..FACE2_GLZ1,Surface Window Heat Gain Energy [J] !Hourly
572,1,ROOM_EDFC232E..FACE2_GLZ1,Surface Window Heat Loss Energy [J] !Hourly
573,1,ROOM_F82A55C4..FACE1_GLZ1,Surface Window Heat Gain Energy [J] !Hourly
574,1,ROOM_F82A55C4..FACE1_GLZ1,Surface Window Heat Loss Energy [J] !Hourly
575,1,ROOM_F82A55C4..FACE4_GLZ1,Surface Window Heat Gain Energy [J] !Hourly
576,1,ROOM_F82A55C4..FACE4_GLZ1,Surface Window Heat Loss Energy [J] !Hourly
577,1,ROOM_F82A55C4..FACE5_GLZ1,Surface Window Heat Gain Energy [J] !Hourly
578,1,ROOM_F82A55C4..FACE5_GLZ1,Surface Window Heat Loss Energy [J] !Hourly
579,1,ROOM_1FED0393..FACE1,Surface Average Face Conduction Heat Transfer Energy [J] !Hourly
580,1,ROOM_1FED0393..FACE2,Surface Outside Face Solar Radiation Heat Gain Energy [J] !Hourly
581,1,ROOM_1FED0393..FACE2,Surface Average Face Conduction Heat Transfer Energy [J] !Hourly
582,1,ROOM_1FED0393..FACE3,Surface Average Face Conduction Heat Transfer Energy [J] !Hourly
583,1,ROOM_1FED0393..FACE4,Surface Average Face Conduction Heat Transfer Energy [J] !Hourly
584,1,ROOM_1FED0393..FACE0,Surface Average Face Conduction Heat Transfer Energy [J] !Hourly
585,1,ROOM_1FED0393..FACE5,Surface Average Face Conduction Heat Transfer Energy [J] !Hourly
586,1,ROOM_3491F28E..FACE1,Surface Average Face Conduction Heat Transfer Energy [J] !Hourly
587,1,ROOM_3491F28E..FACE2,Surface Outside Face Solar Radiation Heat Gain Energy [J] !Hourly
588,1,ROOM_3491F28E..FACE2,Surface Average Face Conduction Heat Transfer Energy [J] !Hourly
589,1,ROOM_3491F28E..FACE3,Surface Outside Face Solar Radiation Heat Gain Energy [J] !Hourly
590,1,ROOM_3491F28E..FACE3,Surface Average Face Conduction Heat Transfer Energy [J] !Hourly
591,1,ROOM_3491F28E..FACE4,Surface Outside Face Solar Radiation Heat Gain Energy [J] !Hourly
592,1,ROOM_3491F28E..FACE4,Surface Average Face Conduction Heat Transfer Energy [J] !Hourly
593,1,ROOM_3491F28E..FACE5,Surface Outside Face Solar Radiation Heat Gain Energy [J] !Hourly
594,1,ROOM_3491F28E..FACE5,Surface Average Face Conduction Heat Transfer Energy [J] !Hourly
595,1,ROOM_3491F28E..FACE0,Surface Average Face Conduction Heat Transfer Energy [J] !Hourly
596,1,ROOM_3491F28E..FACE6,Surface Average Face Conduction Heat Transfer Energy [J] !Hourly
597,1,ROOM_4101CB5C..FACE1,Surface Average Face Conduction Heat Transfer Energy [J] !Hourly
598,1,ROOM_4101CB5C..FACE2,Surface Outside Face Solar Radiation Heat Gain Energy [J] !Hourly
599,1,ROOM_4101CB5C..FACE2,Surface Average Face Conduction Heat Transfer Energy [J] !Hourly
600,1,ROOM_4101CB5C..FACE3,Surface Outside Face Solar Radiation Heat Gain Energy [J] !Hourly
601,1,ROOM_4101CB5C..FACE3,Surface Average Face Conduction Heat Transfer Energy [J] !Hourly
602,1,ROOM_4101CB5C..FACE4,Surface Average Face Conduction Heat Transfer Energy [J] !Hourly
603,1,ROOM_4101CB5C..FACE5,Surface Average Face Conduction Heat Transfer Energy [J] !Hourly
604,1,ROOM_4101CB5C..FACE0,Surface Average Face Conduction Heat Transfer Energy [J] !Hourly
605,1,ROOM_4101CB5C..FACE6,Surface Average Face Conduction Heat Transfer Energy [J] !Hourly
606,1,ROOM_46DD494C..FACE1,Surface Outside Face Solar Radiation Heat Gain Energy [J] !Hourly
607,1,ROOM_46DD494C..FACE1,Surface Average Face Conduction Heat Transfer Energy [J] !Hourly
608,1,ROOM_46DD494C..FACE2,Surface Average Face Conduction Heat Transfer Energy [J] !Hourly
609,1,ROOM_46DD494C..FACE3,Surface Outside Face Solar Radiation Heat Gain Energy [J] !Hourly
610,1,ROOM_46DD494C..FACE3,Surface Average Face Conduction Heat Transfer Energy [J] !Hourly
611,1,ROOM_46DD494C..FACE4,Surface Outside Face Solar Radiation Heat Gain Energy [J] !Hourly
612,1,ROOM_46DD494C..FACE4,Surface Average Face Conduction Heat Transfer Energy [J] !Hourly
613,1,ROOM_46DD494C..FACE5,Surface Outside Face Solar Radiation Heat Gain Energy [J] !Hourly
614,1,ROOM_46DD494C..FACE5,Surface Average Face Conduction Heat Transfer Energy [J] !Hourly
615,1,ROOM_46DD494C..FACE6,Surface Average Face Conduction Heat Transfer Energy [J] !Hourly
616,1,ROOM_46DD494C..FACE0,Surface Average Face Conduction Heat Transfer Energy [J] !Hourly
617,1,ROOM_46DD494C..FACE7,Surface Average Face Conduction Heat Transfer Energy [J] !Hourly
618,1,ROOM_67B73CDB..FACE1,Surface Outside Face Solar Radiation Heat Gain Energy [J] !Hourly
619,1,ROOM_67B73CDB..FACE1,Surface Average Face Conduction Heat Transfer Energy [J] !Hourly
620,1,ROOM_67B73CDB..FACE2,Surface Outside Face Solar Radiation Heat Gain Energy [J] !Hourly
621,1,ROOM_67B73CDB..FACE2,Surface Average Face Conduction Heat Transfer Energy [J] !Hourly
622,1,ROOM_67B73CDB..FACE3,Surface Average Face Conduction Heat Transfer Energy [J] !Hourly
623,1,ROOM_67B73CDB..FACE4,Surface Outside Face Solar Radiation Heat Gain Energy [J] !Hourly
624,1,ROOM_67B73CDB..FACE4,Surface Average Face Conduction Heat Transfer Energy [J] !Hourly
625,1,ROOM_67B73CDB..FACE5,Surface Average Face Conduction Heat Transfer Energy [J] !Hourly
626,1,ROOM_67B73CDB..FACE0,Surface Average Face Conduction Heat Transfer Energy [J] !Hourly
627,1,ROOM_67B73CDB..FACE6,Surface Average Face Conduction Heat Transfer Energy [J] !Hourly
628,1,ROOM_72ED9C31..FACE1,Surface Average Face Conduction Heat Transfer Energy [J] !Hourly
629,1,ROOM_72ED9C31..FACE2,Surface Outside Face Solar Radiation Heat Gain Energy [J] !Hourly
630,1,ROOM_72ED9C31..FACE2,Surface Average Face Conduction Heat Transfer Energy [J] !Hourly
631,1,ROOM_72ED9C31..FACE3,Surface Outside Face Solar Radiation Heat Gain Energy [J] !Hourly
632,1,ROOM_72ED9C31..FACE3,Surface Average Face Conduction Heat Transfer Energy [J] !Hourly
633,1,ROOM_72ED9C31..FACE4,Surface Average Face Conduction Heat Transfer Energy [J] !Hourly
634,1,ROOM_72ED9C31..FACE5,Surface Outside Face Solar Radiation Heat Gain Energy [J] !Hourly
635,1,ROOM_72ED9C31..FACE5,Surface Average Face Conduction Heat Transfer Energy [J] !Hourly
636,1,ROOM_72ED9C31..FACE6,Surface Outside Face Solar Radiation Heat Gain Energy [J] !Hourly
637,1,ROOM_72ED9C31..FACE6,Surface Average Face Conduction Heat Transfer Energy [J] !Hourly
638,1,ROOM_72ED9C31..FACE0,Surface Average Face Conduction Heat Transfer Energy [J] !Hourly
639,1,ROOM_72ED9C31..FACE7,Surface Average Face Conduction Heat Transfer Energy [J] !Hourly
640,1,ROOM_7CF73752..FACE1,Surface Outside Face Solar Radiation Heat Gain Energy [J] !Hourly
641,1,ROOM_7CF73752..FACE1,Surface Average Face Conduction Heat Transfer Energy [J] !Hourly
642,1,ROOM_7CF73752..FACE2,Surface Outside Face Solar Radiation Heat Gain Energy [J] !Hourly
643,1,ROOM_7CF73752..FACE2,Surface Average Face Conduction Heat Transfer Energy [J] !Hourly
644,1,ROOM_7CF73752..FACE3,Surface Outside Face Solar Radiation Heat Gain Energy [J] !Hourly
645,1,ROOM_7CF73752..FACE3,Surface Average Face Conduction Heat Transfer Energy [J] !Hourly
646,1,ROOM_7CF73752..FACE4,Surface Outside Face Solar Radiation Heat Gain Energy [J] !Hourly
647,1,ROOM_7CF73752..FACE4,Surface Average Face Conduction Heat Transfer Energy [J] !Hourly
648,1,ROOM_7CF73752..FACE0,Surface Average Face Conduction Heat Transfer Energy [J] !Hourly
649,1,ROOM_7CF73752..FACE5,Surface Average Face Conduction Heat Transfer Energy [J] !Hourly
650,1,ROOM_7EB284F1..FACE1,Surface Average Face Conduction Heat Transfer Energy [J] !Hourly
651,1,ROOM_7EB284F1..FACE2,Surface Average Face Conduction Heat Transfer Energy [J] !Hourly
652,1,ROOM_7EB284F1..FACE3,Surface Outside Face Solar Radiation Heat Gain Energy [J] !Hourly
653,1,ROOM_7EB284F1..FACE3,Surface Average Face Conduction Heat Transfer Energy [J] !Hourly
654,1,ROOM_7EB284F1..FACE4,Surface Outside Face Solar Radiation Heat Gain Energy [J] !Hourly
655,1,ROOM_7EB284F1..FACE4,Surface Average Face Conduction Heat Transfer Energy [J] !Hourly
656,1,ROOM_7EB284F1..FACE5,Surface Average Face Conduction Heat Transfer Energy [J] !Hourly
657,1,ROOM_7EB284F1..FACE0,Surface Average Face Conduction Heat Transfer Energy [J] !Hourly
658,1,ROOM_7EB284F1..FACE6,Surface Average Face Conduction Heat Transfer Energy [J] !Hourly
659,1,ROOM_85E48ABC..FACE1,Surface Average Face Conduction Heat Transfer Energy [J] !Hourly
660,1,ROOM_85E48ABC..FACE2,Surface Average Face Conduction Heat Transfer Energy [J] !Hourly
661,1,ROOM_85E48ABC..FACE3,Surface Average Face Conduction Heat Transfer Energy [J] !Hourly
662,1,ROOM_85E48ABC..FACE4,Surface Average Face Conduction Heat Transfer Energy [J] !Hourly
663,1,ROOM_85E48ABC..FACE5,Surface Average Face Conduction Heat Transfer Energy [J] !Hourly
664,1,ROOM_85E48ABC..FACE6,Surface Outside Face Solar Radiation Heat Gain Energy [J] !Hourly
665,1,ROOM_85E48ABC..FACE6,Surface Average Face Conduction Heat Transfer Energy [J] !Hourly
666,1,ROOM_85E48ABC..FACE0,Surface Average Face Conduction Heat Transfer Energy [J] !Hourly
667,1,ROOM_85E48ABC..FACE7,Surface Average Face Conduction Heat Transfer Energy [J] !Hourly
668,1,ROOM_EDFC232E..FACE1,Surface Outside Face Solar Radiation Heat Gain Energy [J] !Hourly
669,1,ROOM_EDFC232E..FACE1,Surface Average Face Conduction Heat Transfer Energy [J] !Hourly
670,1,ROOM_EDFC232E..FACE2,Surface Outside Face Solar Radiation Heat Gain Energy [J] !Hourly
671,1,ROOM_EDFC232E..FACE2,Surface Average Face Conduction Heat Transfer Energy [J] !Hourly
672,1,ROOM_EDFC232E..FACE3,Surface Average Face Conduction Heat Transfer Energy [J] !Hourly
673,1,ROOM_EDFC232E..FACE4,Surface Average Face Conduction Heat Transfer Energy [J] !Hourly
674,1,ROOM_EDFC232E..FACE5,Surface Average Face Conduction Heat Transfer Energy [J] !Hourly
675,1,ROOM_EDFC232E..FACE0,Surface Average Face Conduction Heat Transfer Energy [J] !Hourly
676,1,ROOM_EDFC232E..FACE6,Surface Average Face Conduction Heat Transfer Energy [J] !Hourly
677,1,ROOM_F82A55C4..FACE1,Surface Outside Face Solar Radiation Heat Gain Energy [J] !Hourly
678,1,ROOM_F82A55C4..FACE1,Surface Average Face Conduction Heat Transfer Energy [J] !Hourly
679,1,ROOM_F82A55C4..FACE2,Surface Average Face Conduction Heat Transfer Energy [J] !Hourly
680,1,ROOM_F82A55C4..FACE3,Surface Average Face Conduction Heat Transfer Energy [J] !Hourly
681,1,ROOM_F82A55C4..FACE4,Surface Outside Face Solar Radiation Heat Gain Energy [J] !Hourly
682,1,ROOM_F82A55C4..FACE4,Surface Average Face Conduction Heat Transfer Energy [J] !Hourly
683,1,ROOM_F82A55C4..FACE5,Surface Outside Face Solar Radiation Heat Gain Energy [J] !Hourly
684,1,ROOM_F82A55C4..FACE5,Surface Average Face Conduction Heat Transfer Energy [J] !Hourly
685,1,ROOM_F82A55C4..FACE0,Surface Average Face Conduction Heat Transfer Energy [J] !Hourly
686,1,ROOM_F82A55C4..FACE6,Surface Average Face Conduction Heat Transfer Energy [J] !Hourly
687,1,ROOM_1FED0393,Zone Infiltration Total Heat Loss Energy [J] !Hourly
688,1,ROOM_1FED0393,Zone Infiltration Total Heat Gain Energy [J] !Hourly
689,1,ROOM_3491F28E,Zone Infiltration Total Heat Loss Energy [J] !Hourly
690,1,ROOM_3491F28E,Zone Infiltration Total Heat Gain Energy [J] !Hourly
691,1,ROOM_4101CB5C,Zone Infiltration Total Heat Loss Energy [J] !Hourly
692,1,ROOM_4101CB5C,Zone Infiltration Total Heat Gain Energy [J] !Hourly
693,1,ROOM_46DD494C,Zone Infiltration Total Heat Loss Energy [J] !Hourly
694,1,ROOM_46DD494C,Zone Infiltration Total Heat Gain Energy [J] !Hourly
695,1,ROOM_67B73CDB,Zone Infiltration Total Heat Loss Energy [J] !Hourly
696,1,ROOM_67B73CDB,Zone Infiltration Total Heat Gain Energy [J] !Hourly
697,1,ROOM_72ED9C31,Zone Infiltration Total Heat Loss Energy [J] !Hourly
698,1,ROOM_72ED9C31,Zone Infiltration Total Heat Gain Energy [J] !Hourly
699,1,ROOM_7CF73752,Zone Infiltration Total Heat Loss Energy [J] !Hourly
700,1,ROOM_7CF73752,Zone Infiltration Total Heat Gain Energy [J] !Hourly
701,1,ROOM_7EB284F1,Zone Infiltration Total Heat Loss Energy [J] !Hourly
702,1,ROOM_7EB284F1,Zone Infiltration Total Heat Gain Energy [J] !Hourly
703,1,ROOM_85E48ABC,Zone Infiltration Total Heat Loss Energy [J] !Hourly
704,1,ROOM_85E48ABC,Zone Infiltration Total Heat Gain Energy [J] !Hourly
705,1,ROOM_EDFC232E,Zone Infiltration Total Heat Loss Energy [J] !Hourly
706,1,ROOM_EDFC232E,Zone Infiltration Total Heat Gain Energy [J] !Hourly
707,1,ROOM_F82A55C4,Zone Infiltration Total Heat Loss Energy [J] !Hourly
708,1,ROOM_F82A55C4,Zone Infiltration Total Heat Gain Energy [J] !Hourly
1346,1,ROOM_1FED0393 IDEAL LOADS AIR SYSTEM,Zone Ideal Loads Supply Air Total Heating Energy [J] !Hourly
1395,1,ROOM_1FED0393 IDEAL LOADS AIR SYSTEM,Zone Ideal Loads Supply Air Total Cooling Energy [J] !Hourly
1444,1,ROOM_1FED0393 IDEAL LOADS AIR SYSTEM,Zone Ideal Loads Zone Total Heating Energy [J] !Hourly
1445,1,ROOM_1FED0393 IDEAL LOADS AIR SYSTEM,Zone Ideal Loads Zone Total Cooling Energy [J] !Hourly
1446,1,ROOM_3491F28E IDEAL LOADS AIR SYSTEM,Zone Ideal Loads Supply Air Total Heating Energy [J] !Hourly
1447,1,ROOM_3491F28E IDEAL LOADS AIR SYSTEM,Zone Ideal Loads Supply Air Total Cooling Energy [J] !Hourly
1448,1,ROOM_3491F28E IDEAL LOADS AIR SYSTEM,Zone Ideal Loads Zone Total Heating Energy [J] !Hourly
1449,1,ROOM_3491F28E IDEAL LOADS AIR SYSTEM,Zone Ideal Loads Zone Total Cooling Energy [J] !Hourly
1450,1,ROOM_4101CB5C IDEAL LOADS AIR SYSTEM,Zone Ideal Loads Supply Air Total Heating Energy [J] !Hourly
1451,1,ROOM_4101CB5C IDEAL LOADS AIR SYSTEM,Zone Ideal Loads Supply Air Total Cooling Energy [J] !Hourly
1452,1,ROOM_4101CB5C IDEAL LOADS AIR SYSTEM,Zone Ideal Loads Zone Total Heating Energy [J] !Hourly
1453,1,ROOM_4101CB5C IDEAL LOADS AIR SYSTEM,Zone Ideal Loads Zone Total Cooling Energy [J] !Hourly
1454,1,ROOM_46DD494C IDEAL LOADS AIR SYSTEM,Zone Ideal Loads Supply Air Total Heating Energy [J] !Hourly
1455,1,ROOM_46DD494C IDEAL LOADS AIR SYSTEM,Zone Ideal Loads Supply Air Total Cooling Energy [J] !Hourly
1456,1,ROOM_46DD494C IDEAL LOADS AIR SYSTEM,Zone Ideal Loads Zone Total Heating Energy [J] !Hourly
1457,1,ROOM_46DD494C IDEAL LOADS AIR SYSTEM,Zone Ideal Loads Zone Total Cooling Energy [J] !Hourly
1458,1,ROOM_67B73CDB IDEAL LOADS AIR SYSTEM,Zone Ideal Loads Supply Air Total Heating Energy [J] !Hourly
1459,1,ROOM_67B73CDB IDEAL LOADS AIR SYSTEM,Zone Ideal Loads Supply Air Total Cooling Energy [J] !Hourly
1460,1,ROOM_67B73CDB IDEAL LOADS AIR SYSTEM,Zone Ideal Loads Zone Total Heating Energy [J] !Hourly
1461,1,ROOM_67B73CDB IDEAL LOADS AIR SYSTEM,Zone Ideal Loads Zone Total Cooling Energy [J] !Hourly
1462,1,ROOM_72ED9C31 IDEAL LOADS AIR SYSTEM,Zone Ideal Loads Supply Air Total Heating Energy [J] !Hourly
1463,1,ROOM_72ED9C31 IDEAL LOADS AIR SYSTEM,Zone Ideal Loads Supply Air Total Cooling Energy [J] !Hourly
1464,1,ROOM_72ED9C31 IDEAL LOADS AIR SYSTEM,Zone Ideal Loads Zone Total Heating Energy [J] !Hourly
1465,1,ROOM_72ED9C31 IDEAL LOADS AIR SYSTEM,Zone Ideal Loads Zone Total Cooling Energy [J] !Hourly
1466,1,ROOM_7CF73752 IDEAL LOADS AIR SYSTEM,Zone Ideal Loads Supply Air Total Heating Energy [J] !Hourly
1467,1,ROOM_7CF73752 IDEAL LOADS AIR SYSTEM,Zone Ideal Loads Supply Air Total Cooling Energy [J] !Hourly
1468,1,ROOM_7CF73752 IDEAL LOADS AIR SYSTEM,Zone Ideal Loads Zone Total Heating Energy [J] !Hourly
1469,1,ROOM_7CF73752 IDEAL LOADS AIR SYSTEM,Zone Ideal Loads Zone Total Cooling Energy [J] !Hourly
1470,1,ROOM_7EB284F1 IDEAL LOADS AIR SYSTEM,Zone Ideal Loads Supply Air Total Heating Energy [J] !Hourly
1471,1,ROOM_7EB284F1 IDEAL LOADS AIR SYSTEM,Zone Ideal Loads Supply Air Total Cooling Energy [J] !Hourly
1472,1,ROOM_7EB284F1 IDEAL LOADS AIR SYSTEM,Zone Ideal Loads Zone Total Heating Energy [J] !Hourly
1473,1,ROOM_7EB284F1 IDEAL LOADS AIR SYSTEM,Zone Ideal Loads Zone Total Cooling Energy [J] !Hourly
1474,1,ROOM_85E48ABC IDEAL LOADS AIR SYSTEM,Zone Ideal Loads Supply Air Total Heating Energy [J] !Hourly
1475,1,ROOM_85E48ABC IDEAL LOADS AIR SYSTEM,Zone Ideal Loads Supply Air Total Cooling Energy [J] !Hourly
1476,1,ROOM_85E48ABC IDEAL LOADS AIR SYSTEM,Zone Ideal Loads Zone Total Heating Energy [J] !Hourly
1477,1,ROOM_85E48ABC IDEAL LOADS AIR SYSTEM,Zone Ideal Loads Zone Total Cooling Energy [J] !Hourly
1478,1,ROOM_EDFC232E IDEAL LOADS AIR SYSTEM,Zone Ideal Loads Supply Air Total Heating Energy [J] !Hourly
1479,1,ROOM_EDFC232E IDEAL LOADS AIR SYSTEM,Zone Ideal Loads Supply Air Total Cooling Energy [J] !Hourly
1480,1,ROOM_EDFC232E IDEAL LOADS AIR SYSTEM,Zone Ideal Loads Zone Total Heating Energy [J] !Hourly
1481,1,ROOM_EDFC232E IDEAL LOADS AIR SYSTEM,Zone Ideal Loads Zone Total Cooling Energy [J] !Hourly
1482,1,ROOM_F82A55C4 IDEAL LOADS AIR SYSTEM,Zone Ideal Loads Supply Air Total Heating Energy [J] !Hourly
1483,1,ROOM_F82A55C4 IDEAL LOADS AIR SYSTEM,Zone Ideal Loads Supply Air Total Cooling Energy [J] !Hourly
1484,1,ROOM_F82A55C4 IDEAL LOADS AIR SYSTEM,Zone Ideal Loads Zone Total Heating Energy [J] !Hourly
1485,1,ROOM_F82A55C4 IDEAL LOADS AIR SYSTEM,Zone Ideal Loads Zone Total Cooling Energy [J] !Hourly
End of Data Dictionary
1,RUN PERIOD 1,  42.37, -71.02,  -5.00,   6.00
2,1, 1, 1, 0, 1, 0.00,60.00,Sunday
7,0.0
8,0.0
9,0.0
10,0.0
11,0.0
12,0.0
13,0.0
14,0.0
15,0.0
16,0.0
17,0.0
508,0.0
509,0.0
510,0.0
511,0.0
512,0.0
513,0.0
514,0.0
515,0.0
516,0.0
517,0.0
518,0.0
519,0.0
520,170817.60220296595
521,0.0
522,32089.090890486168
523,0.0
524,142598.52432183538
525,0.0
526,63439.68487500471
527,0.0
528,143224.59893063858
529,0.0
530,228092.7576214809
531,0.0
532,243702.4369147881
533,0.0
534,247203.02285537125
535,0.0
536,35433.33796725697
537,0.0
538,247167.42646776787
539,0.0
540,36273.47999473192
541,0.0
542,248396.4949461156
543,0.0
544,190839.75230093866
545,0.0
546,151619.98301355414
547,0.0
548,52207.864418347075
549,0.0
550,108067.307732791
551,0.0
552,176715.23353946553
553,0.0
554,148829.64837389688
555,0.0
556,143961.3231226639
557,0.0
558,247447.09487263009
559,0.0
560,139446.19734734525
561,0.0
562,223545.05473677486
563,0.0
564,402901.0488717801
565,0.0
566,218737.71025980309
567,0.0
568,153924.59830237455
569,0.0
570,158913.42757077103
571,0.0
572,153284.64570547569
573,0.0
574,251625.53375261595
575,0.0
576,143109.69604391454
577,0.0
578,152598.1381295426
579,7281.042386171111
580,0.0
581,-115474.97155404181
582,-11563.121294022974
583,-2750.5482492228768
584,31369.284958574426
585,4917.453624191818
586,3403.2653171212489
587,0.0
588,-20039.31416237776
589,0.0
590,-72099.0793091181
591,0.0
592,-28769.878195985573
593,0.0
594,-83983.42300936769
595,8079.780007459819
596,-141.8766022529264
597,11100.629804076068
598,0.0
599,-427745.85059299939
600,0.0
601,-170741.47460104814
602,-3769.990507601995
603,-556.5604488717762
604,171909.261193476
605,26176.04729806805
606,0.0
607,-237140.49493671384
608,-6373.430312047225
609,0.0
610,-24324.777092358327
611,0.0
612,-167692.34661149779
613,0.0
614,-15466.262749424961
615,-14791.59384499516
616,95615.08770348269
617,9114.639976826858
618,0.0
619,-238818.1648672725
620,0.0
621,-81690.63661527886
622,13433.116242089016
623,0.0
624,-65165.78789016354
625,2403.848843363647
626,71831.29954430937
627,6440.430953089195
628,9520.97970127513
629,0.0
630,-36114.77524908322
631,0.0
632,-52769.431685516334
633,-4873.015823759337
634,0.0
635,-78335.68669533529
636,0.0
637,-144310.4584913477
638,48414.308507355025
639,3392.2164394054545
640,0.0
641,-144013.93499226796
642,0.0
643,-489481.63000998
644,0.0
645,-97112.33160062219
646,0.0
647,-94715.99782054368
648,172591.40894340666
649,17411.92693631286
650,490.353117377841
651,10260.879555803745
652,0.0
653,-275011.9255244407
654,0.0
655,-97271.18870878611
656,-1610.5656819963777
657,74939.36269905418
658,7331.470459110152
659,11776.960658145957
660,756.733854204878
661,2820.898301075675
662,-639.5909058502092
663,-5115.065488705341
664,0.0
665,-66319.60933839646
666,13317.485075653147
667,2637.9535750486636
668,0.0
669,-180108.1993797913
670,0.0
671,-284657.98404630259
672,-1480.196646992631
673,-8561.335770633625
674,-12249.404986686119
675,147916.1441787738
676,22394.330407499547
677,0.0
678,-232241.98410461739
679,4093.3106541905306
680,-4860.01696696245
681,0.0
682,-61918.23856498806
683,0.0
684,-89854.73690654717
685,95171.51284953504
686,9170.489166628187
687,106005.46747733599
688,0.0
689,282727.37336888656
690,0.0
691,292130.42928256219
692,0.0
693,371013.25423981007
694,0.0
695,411337.24680824609
696,0.0
697,332870.0220324211
698,0.0
699,522429.9744012512
700,0.0
701,399041.330144176
702,0.0
703,106225.44326559107
704,0.0
705,192246.29746950375
706,0.0
707,357660.110746649
708,0.0
1346,500714.9404781738
1395,0.0
1444,268374.21208864476
1445,0.0
1446,967826.1707449178
1447,0.0
1448,889800.8383745025
1449,0.0
1450,831446.7184976904
1451,0.0
1452,477441.67081747119
1453,0.0
1454,1444072.8306711829
1455,0.0
1456,1008406.2507715748
1457,0.0
1458,1513233.5683874738
1459,0.0
1460,1105439.0648239807
1461,0.0
1462,1211175.7732381796
1463,0.0
1464,962593.1312246848
1465,0.0
1466,1483163.0248437427
1467,0.0
1468,1225572.7046892383
1469,0.0
1470,1707628.9623538485
1471,0.0
1472,1101004.715434481
1473,0.0
1474,460883.7468482342
1475,0.0
1476,277654.95166503966
1477,0.0
1478,527505.2003155801
1479,0.0
1480,260789.1308094756
1481,0.0
1482,1388380.145440754
1483,0.0
1484,930249.2771633131
1485,0.0
2,1, 1, 1, 0, 2, 0.00,60.00,Sunday
7,0.0
8,0.0
9,0.0
10,0.0
11,0.0
12,0.0
13,0.0
14,0.0
15,0.0
16,0.0
17,0.0
508,0.0
509,0.0
510,0.0
511,0.0
512,0.0
513,0.0
514,0.0
515,0.0
516,0.0
517,0.0
518,0.0
519,0.0
520,133051.7948915194
521,0.0
522,24957.670693495533
523,0.0
524,109593.02224483495
525,0.0
526,48507.28114052683
527,0.0
528,109892.04902330248
529,0.0
530,177761.238893904
531,0.0
532,189971.97972537127
533,0.0
534,191118.73890675693
535,0.0
536,27820.983657312754
537,0.0
538,191256.80052900403
539,0.0
540,28342.709336240132
541,0.0
542,191771.85973582476
543,0.0
544,149893.13167805493
545,0.0
546,118923.0851971244
547,0.0
548,40606.550569277424
549,0.0
550,84216.51929759508
551,0.0
552,136629.82132202498
553,0.0
554,114712.32558074859
555,0.0
556,110970.72371230126
557,0.0
558,190719.26013743453
559,0.0
560,107560.12368939369
561,0.0
562,174931.41187618616
563,0.0
564,312257.3596201517
565,0.0
566,169450.1479219358
567,0.0
568,121279.10915769336
569,0.0
570,124256.7919102399
571,0.0
572,119608.63165458702
573,0.0
574,195161.22672578443
575,0.0
576,111267.90201575554
577,0.0
578,118926.91706708072
579,5267.1749714166039
580,0.0
581,53733.50646014667
582,-11148.521089383978
583,-3046.8009395148558
584,25051.587788972916
585,3058.137069435513
586,3042.110487538423
587,0.0
588,15783.550337591927
589,0.0
590,84603.70028085652
591,0.0
592,40348.16025625518
593,0.0
594,73199.65223220304
595,2101.5807450471577
596,-1370.3392787874573
597,8543.525605927978
598,0.0
599,-177301.24417477064
600,0.0
601,68809.02286354633
602,-3692.737473347675
603,-523.1119508632926
604,142916.70755723385
605,19151.352798290245
606,0.0
607,22542.768841388297
608,-6018.4064905850659
609,0.0
610,12053.955147555649
611,0.0
612,86179.51080067511
613,0.0
614,20618.316281877374
615,-13662.000602169413
616,71662.55823097419
617,4287.853770128242
618,0.0
619,24368.15938523248
620,0.0
621,107226.39267410212
622,11822.801415814218
623,0.0
624,86232.79900234072
625,2122.438857834869
626,50748.40087598634
627,2169.336966119844
628,8667.945440322432
629,0.0
630,18737.104068098484
631,0.0
632,58925.63650711535
633,-4457.192740324654
634,0.0
635,101032.6432338833
636,0.0