Program Version,EnergyPlus, Version 9.3.0-baff08990c, YMD=2021.04.24 20:36
1,5,Environment Title[],Latitude[deg],Longitude[deg],Time Zone[],Elevation[m]
2,8,Day of Simulation[],Month[],Day of Month[],DST Indicator[1=yes 0=no],Hour[],StartMinute[],EndMinute[],DayType
3,5,Cumulative Day of Simulation[],Month[],Day of Month[],DST Indicator[1=yes 0=no],DayType  ! When Daily Report Variables Requested
4,2,Cumulative Days of Simulation[],Month[]  ! When Monthly Report Variables Requested
5,1,Cumulative Days of Simulation[] ! When Run Period Report Variables Requested
6,1,Calendar Year of Simulation[] ! When Annual Report Variables Requested
7,1,ROOM_03746E2B,Zone People Total Heating Energy [J] !Hourly
8,1,ROOM_2158C36E,Zone People Total Heating Energy [J] !Hourly
9,1,ROOM_2A73B7C2,Zone People Total Heating Energy [J] !Hourly
10,1,ROOM_3B43E7C4,Zone People Total Heating Energy [J] !Hourly
11,1,ROOM_4DD13587,Zone People Total Heating Energy [J] !Hourly
12,1,ROOM_84DBB030,Zone People Total Heating Energy [J] !Hourly
13,1,ROOM_88EC3072,Zone People Total Heating Energy [J] !Hourly
14,1,ROOM_97CA74D7,Zone People Total Heating Energy [J] !Hourly
15,1,ROOM_AD6B393A,Zone People Total Heating Energy [J] !Hourly
16,1,ROOM_E96334C5,Zone People Total Heating Energy [J] !Hourly
17,1,ROOM_F9A9F791,Zone People Total Heating Energy [J] !Hourly
508,1,ROOM_03746E2B,Zone Windows Total Transmitted Solar Radiation Energy [J] !Hourly
509,1,ROOM_2158C36E,Zone Windows Total Transmitted Solar Radiation Energy [J] !Hourly
510,1,ROOM_2A73B7C2,Zone Windows Total Transmitted Solar Radiation Energy [J] !Hourly
511,1,ROOM_3B43E7C4,Zone Windows Total Transmitted Solar Radiation Energy [J] !Hourly
512,1,ROOM_4DD13587,Zone Windows Total Transmitted Solar Radiation Energy [J] !Hourly
513,1,ROOM_84DBB030,Zone Windows Total Transmitted Solar Radiation Energy [J] !Hourly
514,1,ROOM_88EC3072,Zone Windows Total Transmitted Solar Radiation Energy [J] !Hourly
515,1,ROOM_97CA74D7,Zone Windows Total Transmitted Solar Radiation Energy [J] !Hourly
516,1,ROOM_AD6B393A,Zone Windows Total Transmitted Solar Radiation Energy [J] !Hourly
517,1,ROOM_E96334C5,Zone Windows Total Transmitted Solar Radiation Energy [J] !Hourly
518,1,ROOM_F9A9F791,Zone Windows Total Transmitted Solar Radiation Energy [J] !Hourly
519,1,ROOM_03746E2B..FACE1_GLZ1,Surface Window Heat Gain Energy [J] !Hourly
520,1,ROOM_03746E2B..FACE1_GLZ1,Surface Window Heat Loss Energy [J] !Hourly
521,1,ROOM_03746E2B..FACE2_GLZ1,Surface Window Heat Gain Energy [J] !Hourly
522,1,ROOM_03746E2B..FACE2_GLZ1,Surface Window Heat Loss Energy [J] !Hourly
523,1,ROOM_03746E2B..FACE5_GLZ1,Surface Window Heat Gain Energy [J] !Hourly
524,1,ROOM_03746E2B..FACE5_GLZ1,Surface Window Heat Loss Energy [J] !Hourly
525,1,ROOM_2158C36E..FACE2_GLZ1,Surface Window Heat Gain Energy [J] !Hourly
526,1,ROOM_2158C36E..FACE2_GLZ1,Surface Window Heat Loss Energy [J] !Hourly
527,1,ROOM_2A73B7C2..FACE1_GLZ1,Surface Window Heat Gain Energy [J] !Hourly
528,1,ROOM_2A73B7C2..FACE1_GLZ1,Surface Window Heat Loss Energy [J] !Hourly
529,1,ROOM_3B43E7C4..FACE3_GLZ1,Surface Window Heat Gain Energy [J] !Hourly
530,1,ROOM_3B43E7C4..FACE3_GLZ1,Surface Window Heat Loss Energy [J] !Hourly
531,1,ROOM_4DD13587..FACE1_GLZ1,Surface Window Heat Gain Energy [J] !Hourly
532,1,ROOM_4DD13587..FACE1_GLZ1,Surface Window Heat Loss Energy [J] !Hourly
533,1,ROOM_84DBB030..FACE1_GLZ1,Surface Window Heat Gain Energy [J] !Hourly
534,1,ROOM_84DBB030..FACE1_GLZ1,Surface Window Heat Loss Energy [J] !Hourly
535,1,ROOM_84DBB030..FACE5_GLZ1,Surface Window Heat Gain Energy [J] !Hourly
536,1,ROOM_84DBB030..FACE5_GLZ1,Surface Window Heat Loss Energy [J] !Hourly
537,1,ROOM_84DBB030..FACE6_GLZ1,Surface Window Heat Gain Energy [J] !Hourly
538,1,ROOM_84DBB030..FACE6_GLZ1,Surface Window Heat Loss Energy [J] !Hourly
539,1,ROOM_88EC3072..FACE1_GLZ1,Surface Window Heat Gain Energy [J] !Hourly
540,1,ROOM_88EC3072..FACE1_GLZ1,Surface Window Heat Loss Energy [J] !Hourly
541,1,ROOM_88EC3072..FACE4_GLZ1,Surface Window Heat Gain Energy [J] !Hourly
542,1,ROOM_88EC3072..FACE4_GLZ1,Surface Window Heat Loss Energy [J] !Hourly
543,1,ROOM_97CA74D7..FACE1_GLZ1,Surface Window Heat Gain Energy [J] !Hourly
544,1,ROOM_97CA74D7..FACE1_GLZ1,Surface Window Heat Loss Energy [J] !Hourly
545,1,ROOM_97CA74D7..FACE4_GLZ1,Surface Window Heat Gain Energy [J] !Hourly
546,1,ROOM_97CA74D7..FACE4_GLZ1,Surface Window Heat Loss Energy [J] !Hourly
547,1,ROOM_AD6B393A..FACE2_GLZ1,Surface Window Heat Gain Energy [J] !Hourly
548,1,ROOM_AD6B393A..FACE2_GLZ1,Surface Window Heat Loss Energy [J] !Hourly
549,1,ROOM_AD6B393A..FACE4_GLZ1,Surface Window Heat Gain Energy [J] !Hourly
550,1,ROOM_AD6B393A..FACE4_GLZ1,Surface Window Heat Loss Energy [J] !Hourly
551,1,ROOM_E96334C5..FACE1_GLZ1,Surface Window Heat Gain Energy [J] !Hourly
552,1,ROOM_E96334C5..FACE1_GLZ1,Surface Window Heat Loss Energy [J] !Hourly
553,1,ROOM_E96334C5..FACE2_GLZ1,Surface Window Heat Gain Energy [J] !Hourly
554,1,ROOM_E96334C5..FACE2_GLZ1,Surface Window Heat Loss Energy [J] !Hourly
555,1,ROOM_F9A9F791..FACE2_GLZ1,Surface Window Heat Gain Energy [J] !Hourly
556,1,ROOM_F9A9F791..FACE2_GLZ1,Surface Window Heat Loss Energy [J] !Hourly
557,1,ROOM_F9A9F791..FACE3_GLZ1,Surface Window Heat Gain Energy [J] !Hourly
558,1,ROOM_F9A9F791..FACE3_GLZ1,Surface Window Heat Loss Energy [J] !Hourly
559,1,ROOM_03746E2B..FACE1,Surface Outside Face Solar Radiation Heat Gain Energy [J] !Hourly
560,1,ROOM_03746E2B..FACE1,Surface Average Face Conduction Heat Transfer Energy [J] !Hourly
561,1,ROOM_03746E2B..FACE2,Surface Outside Face Solar Radiation Heat Gain Energy [J] !Hourly
562,1,ROOM_03746E2B..FACE2,Surface Average Face Conduction Heat Transfer Energy [J] !Hourly
563,1,ROOM_03746E2B..FACE3,Surface Average Face Conduction Heat Transfer Energy [J] !Hourly
564,1,ROOM_03746E2B..FACE4,Surface Average Face Conduction Heat Transfer Energy [J] !Hourly
565,1,ROOM_03746E2B..FACE5,Surface Outside Face Solar Radiation Heat Gain Energy [J] !Hourly
566,1,ROOM_03746E2B..FACE5,Surface Average Face Conduction Heat Transfer Energy [J] !Hourly
567,1,ROOM_03746E2B..FACE0,Surface Average Face Conduction Heat Transfer Energy [J] !Hourly
568,1,ROOM_03746E2B..FACE6,Surface Average Face Conduction Heat Transfer Energy [J] !Hourly
569,1,ROOM_2158C36E..FACE1,Surface Average Face Conduction Heat Transfer Energy [J] !Hourly
570,1,ROOM_2158C36E..FACE2,Surface Outside Face Solar Radiation Heat Gain Energy [J] !Hourly
571,1,ROOM_2158C36E..FACE2,Surface Average Face Conduction Heat Transfer Energy [J] !Hourly
572,1,ROOM_2158C36E..FACE3,Surface Average Face Conduction Heat Transfer Energy [J] !Hourly
573,1,ROOM_2158C36E..FACE4,Surface Average Face Conduction Heat Transfer Energy [J] !Hourly
574,1,ROOM_2158C36E..FACE0,Surface Average Face Conduction Heat Transfer Energy [J] !Hourly
575,1,ROOM_2158C36E..FACE5,Surface Average Face Conduction Heat Transfer Energy [J] !Hourly
576,1,ROOM_2A73B7C2..FACE1,Surface Outside Face Solar Radiation Heat Gain Energy [J] !Hourly
577,1,ROOM_2A73B7C2..FACE1,Surface Average Face Conduction Heat Transfer Energy [J] !Hourly
578,1,ROOM_2A73B7C2..FACE2,Surface Average Face Conduction Heat Transfer Energy [J] !Hourly
579,1,ROOM_2A73B7C2..FACE3,Surface Average Face Conduction Heat Transfer Energy [J] !Hourly
580,1,ROOM_2A73B7C2..FACE4,Surface Average Face Conduction Heat Transfer Energy [J] !Hourly
581,1,ROOM_2A73B7C2..FACE0,Surface Average Face Conduction Heat Transfer Energy [J] !Hourly
582,1,ROOM_2A73B7C2..FACE5,Surface Average Face Conduction Heat Transfer Energy [J] !Hourly
583,1,ROOM_3B43E7C4..FACE1,Surface Average Face Conduction Heat Transfer Energy [J] !Hourly
584,1,ROOM_3B43E7C4..FACE2,Surface Average Face Conduction Heat Transfer Energy [J] !Hourly
585,1,ROOM_3B43E7C4..FACE3,Surface Outside Face Solar Radiation Heat Gain Energy [J] !Hourly
586,1,ROOM_3B43E7C4..FACE3,Surface Average Face Conduction Heat Transfer Energy [J] !Hourly
587,1,ROOM_3B43E7C4..FACE4,Surface Average Face Conduction Heat Transfer Energy [J] !Hourly
588,1,ROOM_3B43E7C4..FACE0,Surface Average Face Conduction Heat Transfer Energy [J] !Hourly
589,1,ROOM_3B43E7C4..FACE5,Surface Average Face Conduction Heat Transfer Energy [J] !Hourly
590,1,ROOM_4DD13587..FACE1,Surface Outside Face Solar Radiation Heat Gain Energy [J] !Hourly
591,1,ROOM_4DD13587..FACE1,Surface Average Face Conduction Heat Transfer Energy [J] !Hourly
592,1,ROOM_4DD13587..FACE2,Surface Average Face Conduction Heat Transfer Energy [J] !Hourly
593,1,ROOM_4DD13587..FACE3,Surface Average Face Conduction Heat Transfer Energy [J] !Hourly
594,1,ROOM_4DD13587..FACE4,Surface Average Face Conduction Heat Transfer Energy [J] !Hourly
595,1,ROOM_4DD13587..FACE0,Surface Average Face Conduction Heat Transfer Energy [J] !Hourly
596,1,ROOM_4DD13587..FACE5,Surface Average Face Conduction Heat Transfer Energy [J] !Hourly
597,1,ROOM_84DBB030..FACE1,Surface Outside Face Solar Radiation Heat Gain Energy [J] !Hourly
598,1,ROOM_84DBB030..FACE1,Surface Average Face Conduction Heat Transfer Energy [J] !Hourly
599,1,ROOM_84DBB030..FACE2,Surface Average Face Conduction Heat Transfer Energy [J] !Hourly
600,1,ROOM_84DBB030..FACE3,Surface Average Face Conduction Heat Transfer Energy [J] !Hourly
601,1,ROOM_84DBB030..FACE4,Surface Average Face Conduction Heat Transfer Energy [J] !Hourly
602,1,ROOM_84DBB030..FACE5,Surface Outside Face Solar Radiation Heat Gain Energy [J] !Hourly
603,1,ROOM_84DBB030..FACE5,Surface Average Face Conduction Heat Transfer Energy [J] !Hourly
604,1,ROOM_84DBB030..FACE6,Surface Outside Face Solar Radiation Heat Gain Energy [J] !Hourly
605,1,ROOM_84DBB030..FACE6,Surface Average Face Conduction Heat Transfer Energy [J] !Hourly
606,1,ROOM_84DBB030..FACE0,Surface Average Face Conduction Heat Transfer Energy [J] !Hourly
607,1,ROOM_84DBB030..FACE7,Surface Average Face Conduction Heat Transfer Energy [J] !Hourly
608,1,ROOM_88EC3072..FACE1,Surface Outside Face Solar Radiation Heat Gain Energy [J] !Hourly
609,1,ROOM_88EC3072..FACE1,Surface Average Face Conduction Heat Transfer Energy [J] !Hourly
610,1,ROOM_88EC3072..FACE2,Surface Average Face Conduction Heat Transfer Energy [J] !Hourly
611,1,ROOM_88EC3072..FACE3,Surface Average Face Conduction Heat Transfer Energy [J] !Hourly
612,1,ROOM_88EC3072..FACE4,Surface Outside Face Solar Radiation Heat Gain Energy [J] !Hourly
613,1,ROOM_88EC3072..FACE4,Surface Average Face Conduction Heat Transfer Energy [J] !Hourly
614,1,ROOM_88EC3072..FACE0,Surface Average Face Conduction Heat Transfer Energy [J] !Hourly
615,1,ROOM_88EC3072..FACE5,Surface Average Face Conduction Heat Transfer Energy [J] !Hourly
616,1,ROOM_97CA74D7..FACE1,Surface Outside Face Solar Radiation Heat Gain Energy [J] !Hourly
617,1,ROOM_97CA74D7..FACE1,Surface Average Face Conduction Heat Transfer Energy [J] !Hourly
618,1,ROOM_97CA74D7..FACE2,Surface Average Face Conduction Heat Transfer Energy [J] !Hourly
619,1,ROOM_97CA74D7..FACE3,Surface Average Face Conduction Heat Transfer Energy [J] !Hourly
620,1,ROOM_97CA74D7..FACE4,Surface Outside Face Solar Radiation Heat Gain Energy [J] !Hourly
621,1,ROOM_97CA74D7..FACE4,Surface Average Face Conduction Heat Transfer Energy [J] !Hourly
622,1,ROOM_97CA74D7..FACE0,Surface Average Face Conduction Heat Transfer Energy [J] !Hourly
623,1,ROOM_97CA74D7..FACE5,Surface Average Face Conduction Heat Transfer Energy [J] !Hourly
624,1,ROOM_AD6B393A..FACE1,Surface Average Face Conduction Heat Transfer Energy [J] !Hourly
625,1,ROOM_AD6B393A..FACE2,Surface Outside Face Solar Radiation Heat Gain Energy [J] !Hourly
626,1,ROOM_AD6B393A..FACE2,Surface Average Face Conduction Heat Transfer Energy [J] !Hourly
627,1,ROOM_AD6B393A..FACE3,Surface Average Face Conduction Heat Transfer Energy [J] !Hourly
628,1,ROOM_AD6B393A..FACE4,Surface Outside Face Solar Radiation Heat Gain Energy [J] !Hourly
629,1,ROOM_AD6B393A..FACE4,Surface Average Face Conduction Heat Transfer Energy [J] !Hourly
630,1,ROOM_AD6B393A..FACE0,Surface Average Face Conduction Heat Transfer Energy [J] !Hourly
631,1,ROOM_AD6B393A..FACE5,Surface Average Face Conduction Heat Transfer Energy [J] !Hourly
632,1,ROOM_E96334C5..FACE1,Surface Outside Face Solar Radiation Heat Gain Energy [J] !Hourly
633,1,ROOM_E96334C5..FACE1,Surface Average Face Conduction Heat Transfer Energy [J] !Hourly
634,1,ROOM_E96334C5..FACE2,Surface Outside Face Solar Radiation Heat Gain Energy [J] !Hourly
635,1,ROOM_E96334C5..FACE2,Surface Average Face Conduction Heat Transfer Energy [J] !Hourly
636,1,ROOM_E96334C5..FACE3,Surface Average Face Conduction Heat Transfer Energy [J] !Hourly
637,1,ROOM_E96334C5..FACE4,Surface Average Face Conduction Heat Transfer Energy [J] !Hourly
638,1,ROOM_E96334C5..FACE0,Surface Average Face Conduction Heat Transfer Energy [J] !Hourly
639,1,ROOM_E96334C5..FACE5,Surface Average Face Conduction Heat Transfer Energy [J] !Hourly
640,1,ROOM_F9A9F791..FACE1,Surface Average Face Conduction Heat Transfer Energy [J] !Hourly
641,1,ROOM_F9A9F791..FACE2,Surface Outside Face Solar Radiation Heat Gain Energy [J] !Hourly
642,1,ROOM_F9A9F791..FACE2,Surface Average Face Conduction Heat Transfer Energy [J] !Hourly
643,1,ROOM_F9A9F791..FACE3,Surface Outside Face Solar Radiation Heat Gain Energy [J] !Hourly
644,1,ROOM_F9A9F791..FACE3,Surface Average Face Conduction Heat Transfer Energy [J] !Hourly
645,1,ROOM_F9A9F791..FACE4,Surface Average Face Conduction Heat Transfer Energy [J] !Hourly
646,1,ROOM_F9A9F791..FACE5,Surface Average Face Conduction Heat Transfer Energy [J] !Hourly
647,1,ROOM_F9A9F791..FACE0,Surface Average Face Conduction Heat Transfer Energy [J] !Hourly
648,1,ROOM_F9A9F791..FACE6,Surface Average Face Conduction Heat Transfer Energy [J] !Hourly
649,1,ROOM_03746E2B,Zone Infiltration Total Heat Loss Energy [J] !Hourly
650,1,ROOM_03746E2B,Zone Infiltration Total Heat Gain Energy [J] !Hourly
651,1,ROOM_2158C36E,Zone Infiltration Total Heat Loss Energy [J] !Hourly
652,1,ROOM_2158C36E,Zone Infiltration Total Heat Gain Energy [J] !Hourly
653,1,ROOM_2A73B7C2,Zone Infiltration Total Heat Loss Energy [J] !Hourly
654,1,ROOM_2A73B7C2,Zone Infiltration Total Heat Gain Energy [J] !Hourly
655,1,ROOM_3B43E7C4,Zone Infiltration Total Heat Loss Energy [J] !Hourly
656,1,ROOM_3B43E7C4,Zone Infiltration Total Heat Gain Energy [J] !Hourly
657,1,ROOM_4DD13587,Zone Infiltration Total Heat Loss Energy [J] !Hourly
658,1,ROOM_4DD13587,Zone Infiltration Total Heat Gain Energy [J] !Hourly
659,1,ROOM_84DBB030,Zone Infiltration Total Heat Loss Energy [J] !Hourly
660,1,ROOM_84DBB030,Zone Infiltration Total Heat Gain Energy [J] !Hourly
661,1,ROOM_88EC3072,Zone Infiltration Total Heat Loss Energy [J] !Hourly
662,1,ROOM_88EC3072,Zone Infiltration Total Heat Gain Energy [J] !Hourly
663,1,ROOM_97CA74D7,Zone Infiltration Total Heat Loss Energy [J] !Hourly
664,1,ROOM_97CA74D7,Zone Infiltration Total Heat Gain Energy [J] !Hourly
665,1,ROOM_AD6B393A,Zone Infiltration Total Heat Loss Energy [J] !Hourly
666,1,ROOM_AD6B393A,Zone Infiltration Total Heat Gain Energy [J] !Hourly
667,1,ROOM_E96334C5,Zone Infiltration Total Heat Loss Energy [J] !Hourly
668,1,ROOM_E96334C5,Zone Infiltration Total Heat Gain Energy [J] !Hourly
669,1,ROOM_F9A9F791,Zone Infiltration Total Heat Loss Energy [J] !Hourly
670,1,ROOM_F9A9F791,Zone Infiltration Total Heat Gain Energy [J] !Hourly
1308,1,ROOM_03746E2B IDEAL LOADS AIR SYSTEM,Zone Ideal Loads Supply Air Total Heating Energy [J] !Hourly
1357,1,ROOM_03746E2B IDEAL LOADS AIR SYSTEM,Zone Ideal Loads Supply Air Total Cooling Energy [J] !Hourly
1406,1,ROOM_03746E2B IDEAL LOADS AIR SYSTEM,Zone Ideal Loads Zone Total Heating Energy [J] !Hourly
1407,1,ROOM_03746E2B IDEAL LOADS AIR SYSTEM,Zone Ideal Loads Zone Total Cooling Energy [J] !Hourly
1408,1,ROOM_2158C36E IDEAL LOADS AIR SYSTEM,Zone Ideal Loads Supply Air Total Heating Energy [J] !Hourly
1409,1,ROOM_2158C36E IDEAL LOADS AIR SYSTEM,Zone Ideal Loads Supply Air Total Cooling Energy [J] !Hourly
1410,1,ROOM_2158C36E IDEAL LOADS AIR SYSTEM,Zone Ideal Loads Zone Total Heating Energy [J] !Hourly
1411,1,ROOM_2158C36E IDEAL LOADS AIR SYSTEM,Zone Ideal Loads Zone Total Cooling Energy [J] !Hourly
1412,1,ROOM_2A73B7C2 IDEAL LOADS AIR SYSTEM,Zone Ideal Loads Supply Air Total Heating Energy [J] !Hourly
1413,1,ROOM_2A73B7C2 IDEAL LOADS AIR SYSTEM,Zone Ideal Loads Supply Air Total Cooling Energy [J] !Hourly
1414,1,ROOM_2A73B7C2 IDEAL LOADS AIR SYSTEM,Zone Ideal Loads Zone Total Heating Energy [J] !Hourly
1415,1,ROOM_2A73B7C2 IDEAL LOADS AIR SYSTEM,Zone Ideal Loads Zone Total Cooling Energy [J] !Hourly
1416,1,ROOM_3B43E7C4 IDEAL LOADS AIR SYSTEM,Zone Ideal Loads Supply Air Total Heating Energy [J] !Hourly
1417,1,ROOM_3B43E7C4 IDEAL LOADS AIR SYSTEM,Zone Ideal Loads Supply Air Total Cooling Energy [J] !Hourly
1418,1,ROOM_3B43E7C4 IDEAL LOADS AIR SYSTEM,Zone Ideal Loads Zone Total Heating Energy [J] !Hourly
1419,1,ROOM_3B43E7C4 IDEAL LOADS AIR SYSTEM,Zone Ideal Loads Zone Total Cooling Energy [J] !Hourly
1420,1,ROOM_4DD13587 IDEAL LOADS AIR SYSTEM,Zone Ideal Loads Supply Air Total Heating Energy [J] !Hourly
1421,1,ROOM_4DD13587 IDEAL LOADS AIR SYSTEM,Zone Ideal Loads Supply Air Total Cooling Energy [J] !Hourly
1422,1,ROOM_4DD13587 IDEAL LOADS AIR SYSTEM,Zone Ideal Loads Zone Total Heating Energy [J] !Hourly
1423,1,ROOM_4DD13587 IDEAL LOADS AIR SYSTEM,Zone Ideal Loads Zone Total Cooling Energy [J] !Hourly
1424,1,ROOM_84DBB030 IDEAL LOADS AIR SYSTEM,Zone Ideal Loads Supply Air Total Heating Energy [J] !Hourly
1425,1,ROOM_84DBB030 IDEAL LOADS AIR SYSTEM,Zone Ideal Loads Supply Air Total Cooling Energy [J] !Hourly
1426,1,ROOM_84DBB030 IDEAL LOADS AIR SYSTEM,Zone Ideal Loads Zone Total Heating Energy [J] !Hourly
1427,1,ROOM_84DBB030 IDEAL LOADS AIR SYSTEM,Zone Ideal Loads Zone Total Cooling Energy [J] !Hourly
1428,1,ROOM_88EC3072 IDEAL LOADS AIR SYSTEM,Zone Ideal Loads Supply Air Total Heating Energy [J] !Hourly
1429,1,ROOM_88EC3072 IDEAL LOADS AIR SYSTEM,Zone Ideal Loads Supply Air Total Cooling Energy [J] !Hourly
1430,1,ROOM_88EC3072 IDEAL LOADS AIR SYSTEM,Zone Ideal Loads Zone Total Heating Energy [J] !Hourly
1431,1,ROOM_88EC3072 IDEAL LOADS AIR SYSTEM,Zone Ideal Loads Zone Total Cooling Energy [J] !Hourly
1432,1,ROOM_97CA74D7 IDEAL LOADS AIR SYSTEM,Zone Ideal Loads Supply Air Total Heating Energy [J] !Hourly
1433,1,ROOM_97CA74D7 IDEAL LOADS AIR SYSTEM,Zone Ideal Loads Supply Air Total Cooling Energy [J] !Hourly
1434,1,ROOM_97CA74D7 IDEAL LOADS AIR SYSTEM,Zone Ideal Loads Zone Total Heating Energy [J] !Hourly
1435,1,ROOM_97CA74D7 IDEAL LOADS AIR SYSTEM,Zone Ideal Loads Zone Total Cooling Energy [J] !Hourly
1436,1,ROOM_AD6B393A IDEAL LOADS AIR SYSTEM,Zone Ideal Loads Supply Air Total Heating Energy [J] !Hourly
1437,1,ROOM_AD6B393A IDEAL LOADS AIR SYSTEM,Zone Ideal Loads Supply Air Total Cooling Energy [J] !Hourly
1438,1,ROOM_AD6B393A IDEAL LOADS AIR SYSTEM,Zone Ideal Loads Zone Total Heating Energy [J] !Hourly
1439,1,ROOM_AD6B393A IDEAL LOADS AIR SYSTEM,Zone Ideal Loads Zone Total Cooling Energy [J] !Hourly
1440,1,ROOM_E96334C5 IDEAL LOADS AIR SYSTEM,Zone Ideal Loads Supply Air Total Heating Energy [J] !Hourly
1441,1,ROOM_E96334C5 IDEAL LOADS AIR SYSTEM,Zone Ideal Loads Supply Air Total Cooling Energy [J] !Hourly
1442,1,ROOM_E96334C5 IDEAL LOADS AIR SYSTEM,Zone Ideal Loads Zone Total Heating Energy [J] !Hourly
1443,1,ROOM_E96334C5 IDEAL LOADS AIR SYSTEM,Zone Ideal Loads Zone Total Cooling Energy [J] !Hourly
1444,1,ROOM_F9A9F791 IDEAL LOADS AIR SYSTEM,Zone Ideal Loads Supply Air Total Heating Energy [J] !Hourly
1445,1,ROOM_F9A9F791 IDEAL LOADS AIR SYSTEM,Zone Ideal Loads Supply Air Total Cooling Energy [J] !Hourly
1446,1,ROOM_F9A9F791 IDEAL LOADS AIR SYSTEM,Zone Ideal Loads Zone Total Heating Energy [J] !Hourly
1447,1,ROOM_F9A9F791 IDEAL LOADS AIR SYSTEM,Zone Ideal Loads Zone Total Cooling Energy [J] !Hourly
End of Data Dictionary
1,RUN PERIOD 1,  42.37, -71.02,  -5.00,   6.00
2,1, 1, 1, 0, 1, 0.00,60.00,Sunday
7,0.0
8,0.0
9,0.0
10,0.0
11,0.0
12,0.0
13,0.0
14,0.0
15,0.0
16,0.0
17,0.0
508,0.0
509,0.0
510,0.0
511,0.0
512,0.0
513,0.0
514,0.0
515,0.0
516,0.0
517,0.0
518,0.0
519,0.0
520,364557.0523090617
521,0.0
522,169044.2014385526
523,0.0
524,67950.15154647007
525,0.0
526,259904.0505188548
527,0.0
528,273649.61699252596
529,0.0
530,273982.1298189962
531,0.0
532,305047.46128205789
533,0.0
534,316044.25407524398
535,0.0
536,55340.7649458542
537,0.0
538,587491.1481950253
539,0.0
540,346514.60910868187
541,0.0
542,303516.28037847738
543,0.0
544,171528.6607024501
545,0.0
546,249105.67865819348
547,0.0
548,59368.457501185745
549,0.0
550,54946.75608540849
551,0.0
552,212115.95650280437
553,0.0
554,298048.9763482843
555,0.0
556,525965.9015021081
557,0.0
558,203793.27193109346
559,0.0
560,-280266.9502410956
561,0.0
562,-132069.09795203724
563,-1177.4017470294685
564,-8938.352467450653
565,0.0
566,-30454.374732451186
567,72930.27267134568
568,6513.682134589872
569,7068.570013215227
570,0.0
571,-176040.6400133528
572,-7691.209514739705
573,3537.8533334006826
574,43833.14511582327
575,6021.515045787066
576,0.0
577,-498468.69892403695
578,4831.014016935276
579,-33080.63940610404
580,-8063.873803948302
581,214067.483310458
582,35734.56280931179
583,35946.54310410629
584,-4089.860598937127
585,0.0
586,-118517.024726689
587,-4879.189515553859
588,31302.232886948597
589,5908.0851070633329
590,0.0
591,-556539.8192562955
592,-24386.909438569066
593,-29948.061074222172
594,7176.555813119272
595,232677.79207149358
596,38194.405493493134
597,0.0
598,-300821.55600907866
599,33052.83993564865
600,38273.83427053568
601,4186.057640760874
602,0.0
603,-25826.594353723533
604,0.0
605,-259462.72971321655
606,167981.30906736633
607,22984.900935207268
608,0.0
609,-640662.7557931047
610,19738.813494204645
611,-26714.15285191653
612,0.0
613,-288544.2020944096
614,311666.44940188896
615,48880.94484442086
616,0.0
617,-160100.0532267533
618,4977.980845868303
619,4160.533125767121
620,0.0
621,-113811.30313315848
622,50073.24549567508
623,3681.3717698653
624,6363.498470268285
625,0.0
626,-40060.77259621487
627,-5700.668891185177
628,0.0
629,-25307.19492025572
630,7854.4345278945479
631,858.462409173071
632,0.0
633,-398357.30393340755
634,0.0
635,-208126.4411908059
636,-4925.127449556007
637,34142.8140165848
638,168015.25755782525
639,25286.891939542566
640,2943.446371345363
641,0.0
642,-359182.9079388648
643,0.0
644,-91450.67466782127
645,-7821.479121092496
646,-5709.512054648825
647,90447.95883309705
648,8408.861988736815
649,404076.8793752367
650,0.0
651,161582.81260331453
652,0.0
653,161241.65002465814
654,0.0
655,180272.2558152303
656,0.0
657,180148.47025625403
658,0.0
659,607723.4786323621
660,0.0
661,393246.2628796424
662,0.0
663,279898.37388948039
664,0.0
665,75287.92923115597
666,0.0
667,315638.3521905958
668,0.0
669,468143.88335368348
670,0.0
1308,1669182.3547033817
1357,0.0
1406,1115446.724027794
1407,0.0
1408,747996.226898174
1409,0.0
1410,393842.17390195527
1411,0.0
1412,469023.7168188417
1413,0.0
1414,61104.70436459967
1415,86955.20183771524
1416,893203.3918562064
1417,0.0
1418,404977.3972669513
1419,0.0
1420,553470.1730311234
1421,0.0
1422,68310.26663948236
1423,67742.0998598456
1424,2605938.4917617205
1425,0.0
1426,1369005.0276622014
1427,0.0
1428,1084887.4750666484
1429,0.0
1430,442500.1782073971
1431,0.0
1432,1045584.5772816804
1433,0.0
1434,800949.2863222809
1435,0.0
1436,308027.58526751896
1437,0.0
1438,225737.42020756799
1439,0.0
1440,926495.8756534678
1441,0.0
1442,523877.52565256648
1443,0.0
1444,2059058.6112216628
1445,0.0
1446,1321488.7942108364
1447,0.0
2,1, 1, 1, 0, 2, 0.00,60.00,Sunday
7,0.0
8,0.0
9,0.0
10,0.0
11,0.0
12,0.0
13,0.0
14,0.0
15,0.0
16,0.0
17,0.0
508,0.0
509,0.0
510,0.0
511,0.0
512,0.0
513,0.0
514,0.0
515,0.0
516,0.0
517,0.0
518,0.0
519,0.0
520,283056.8830744938
521,0.0
522,132596.1728351508
523,0.0
524,52993.054637161185
525,0.0
526,202425.3600216575
527,0.0
528,214960.71665928013
529,0.0
530,215503.97586579409
531,0.0
532,239516.3564603798
533,0.0
534,245418.72058917365
535,0.0
536,43476.416930008745
537,0.0
538,456904.9278746739
539,0.0
540,271070.993292733
541,0.0
542,237234.99196303654
543,0.0
544,133458.85584890215
545,0.0
546,191289.41970629554
547,0.0
548,46177.58688796521
549,0.0
550,43217.19048925291
551,0.0
552,165430.621343852
553,0.0
554,232525.55722463787
555,0.0
556,407495.59266282516
557,0.0
558,157707.92706094389
559,0.0
560,93729.78872091732
561,0.0
562,42318.07361334985
563,-1012.285548299731
564,-8393.347056034874
565,0.0
566,37183.63864681462
567,50427.565692951765
568,1861.7210777238582
569,5458.156625725924
570,0.0
571,82012.32048339966
572,-7577.355542455271
573,2987.232775797513
574,33879.228879430586
575,3440.03279353896
576,0.0
577,-209692.55393220156
578,3797.8805842194635
579,-30912.099175334395
580,-8703.948086986346
581,183278.3225216922
582,28588.91088239341
583,32046.368263217766
584,-4454.459892093578
585,0.0
586,141094.8223131052
587,-5161.148234375684
588,22811.85550019169
589,3222.4239410402926
590,0.0
591,-233847.46626820137
592,-23914.849446292792
593,-27860.519272388625
594,5976.970832762876
595,199106.6064950858
596,30626.652472353133
597,0.0
598,24535.180493735188
599,28859.867777476888
600,34731.97318455385
601,3775.3021419304216
602,0.0
603,28543.041970384613
604,0.0
605,310070.78984178966
606,127371.60982610032
607,13316.647962443827
608,0.0
609,-267498.0148377745
610,18148.488919434203
611,-24496.390454018143
612,0.0
613,10842.94995518481
614,262270.99149654878
615,38108.967686364835
616,0.0
617,18490.01552272997
618,4521.192784379512
619,3868.4387434357556
620,0.0
621,141174.0594137708
622,35850.30695961584
623,951.2294448720077
624,5301.3167696915729
625,0.0
626,19585.2167331811
627,-5884.303993526901
628,0.0
629,27875.92030444728
630,5582.209521859078
631,267.2765305193402
632,0.0
633,-164987.91493409623
634,0.0
635,84665.30747503737
636,-4740.778391387279
637,30972.87040551784
638,138951.37699385768
639,18222.21368912553
640,2572.4671530594748
641,0.0
642,177507.36153132286
643,0.0
644,111624.41119524825
645,-7272.984304358746
646,-5354.390788228126
647,62004.71542063421
648,2407.860898820598
649,311455.55121619169
650,0.0
651,122803.35178844468
652,0.0
653,121561.68261843984
654,0.0
655,136288.48947021119
656,0.0
657,135815.72554662493
658,0.0
659,462798.4607765048
660,0.0
661,301403.79505650428
662,0.0
663,218820.36768848616
664,0.0
665,58474.322257903834
666,0.0
667,243874.55662704243
668,0.0
669,359213.9096804626
670,0.0
1308,1383475.8885137349
1357,0.0
1406,950681.3714580289
1407,0.0
1408,608647.6041387295
1409,0.0
1410,336127.06678331087
1411,0.0
1412,348179.3263748533
1413,0.0
1414,67251.0481110705
1415,96587.60930830613
1416,718865.40937469
1417,0.0
1418,345306.93764675248
1419,0.0
1420,414306.13024859
1421,0.0
1422,75176.32373953265
1423,82652.72204784841
1424,2106460.269801754
1425,0.0
1426,1152561.1713950092
1427,0.0
1428,850996.1863386503
1429,0.0
1430,352071.4578016449
1431,0.0
1432,874399.5605034933
1433,0.0
1434,680065.2522141826
1435,0.0
1436,258075.59725560499
1437,0.0
1438,193209.8412144499
1439,0.0
1440,746060.1053627451
1441,0.0
1442,430518.1550376461
1443,0.0
1444,1702093.4573276174
1445,0.0
1446,1128523.9701755597
1447,0.0
2,1, 1, 1, 0, 3, 0.00,60.00,Sunday
7,0.0
8,0.0
9,0.0
10,0.0
11,0.0
12,0.0
13,0.0
14,0.0
15,0.0
16,0.0
17,0.0
508,0.0
509,0.0
510,0.0
511,0.0
512,0.0
513,0.0
514,0.0
515,0.0
516,0.0
517,0.0
518,0.0
519,0.0
520,290466.00415104048
521,0.0
522,136265.80357328765
523,0.0
524,54435.036298258085
525,0.0
526,207466.38401908685
527,0.0
528,218993.40920711967
529,0.0
530,221234.1806713864
531,0.0
532,244051.01279832287
533,0.0
534,251414.092798963
535,0.0
536,44592.95311172065
537,0.0
538,468080.87920526499
539,0.0
540,276020.365236728
541,0.0
542,241580.9122225258
543,0.0
544,136941.03021899877
545,0.0
546,196424.39704344207
547,0.0
548,47399.69206734905
549,0.0
550,44450.75758806711
551,0.0
552,168839.91780738609
553,0.0
554,237274.9754943002
555,0.0
556,418056.2598759698
557,0.0
558,161815.04462202785
559,0.0
560,-50591.83031924805
561,0.0
562,-25722.766668879172
563,3277.530141279717
564,-6085.944722788459
565,0.0
566,8611.475428123716
567,45798.368832403175
568,2471.3105646567348
569,5633.703933076971
570,0.0
571,-19420.791248607973
572,-5648.774794841514
573,4757.689138556328
574,30797.405692644243
575,3154.5266147884046
576,0.0
577,-289474.86784279686
578,5030.801478340971
579,-27260.564842396925
580,-7504.135815130843
581,163172.45406272129
582,25181.991714198884
583,30733.22300313656
584,-3009.0069309448815
585,0.0
586,28743.14552669898
587,-3849.5639886640258
588,21838.644194927354
589,3125.7387218727637
590,0.0
591,-322999.5233210329
592,-21523.54014324097
593,-23702.52852901938
594,7077.980132153618
595,177494.29811048107
596,27145.76314657778
597,0.0
598,-93476.55593951361
599,28505.092303320685
600,34523.6222403316
601,6156.591312064509
602,0.0
603,5601.726666525701
604,0.0
605,71475.67405709248
606,120379.62103615055
607,13784.374160949497
608,0.0
609,-370280.47941815727
610,20940.326441886566
611,-17917.678270093493
612,0.0
613,-97148.20291989365
614,235987.37710018498
615,35120.77873669888
616,0.0
617,-46970.053409181026
618,7138.657444337625
619,6134.240220440732
620,0.0
621,35572.29244153971
622,31850.848376858306
623,1230.4010869198465
624,6365.161643294507
625,0.0
626,-3828.041507477513