Program Version,EnergyPlus, Version 9.3.0-baff08990c, YMD=2021.04.24 20:37
1,5,Environment Title[],Latitude[deg],Longitude[deg],Time Zone[],Elevation[m]
2,8,Day of Simulation[],Month[],Day of Month[],DST Indicator[1=yes 0=no],Hour[],StartMinute[],EndMinute[],DayType
3,5,Cumulative Day of Simulation[],Month[],Day of Month[],DST Indicator[1=yes 0=no],DayType  ! When Daily Report Variables Requested
4,2,Cumulative Days of Simulation[],Month[]  ! When Monthly Report Variables Requested
5,1,Cumulative Days of Simulation[] ! When Run Period Report Variables Requested
6,1,Calendar Year of Simulation[] ! When Annual Report Variables Requested
7,1,ROOM_23D3FD9A,Zone People Total Heating Energy [J] !Hourly
8,1,ROOM_482322B2,Zone People Total Heating Energy [J] !Hourly
9,1,ROOM_8F0F417A,Zone People Total Heating Energy [J] !Hourly
10,1,ROOM_B9128369,Zone People Total Heating Energy [J] !Hourly
11,1,ROOM_C0A6F715,Zone People Total Heating Energy [J] !Hourly
12,1,ROOM_DBBD6D4B,Zone People Total Heating Energy [J] !Hourly
13,1,ROOM_EAB229BF,Zone People Total Heating Energy [J] !Hourly
352,1,ROOM_23D3FD9A,Zone Windows Total Transmitted Solar Radiation Energy [J] !Hourly
353,1,ROOM_482322B2,Zone Windows Total Transmitted Solar Radiation Energy [J] !Hourly
354,1,ROOM_8F0F417A,Zone Windows Total Transmitted Solar Radiation Energy [J] !Hourly
355,1,ROOM_B9128369,Zone Windows Total Transmitted Solar Radiation Energy [J] !Hourly
356,1,ROOM_C0A6F715,Zone Windows Total Transmitted Solar Radiation Energy [J] !Hourly
357,1,ROOM_DBBD6D4B,Zone Windows Total Transmitted Solar Radiation Energy [J] !Hourly
358,1,ROOM_EAB229BF,Zone Windows Total Transmitted Solar Radiation Energy [J] !Hourly
359,1,ROOM_23D3FD9A..FACE1_GLZ1,Surface Window Heat Gain Energy [J] !Hourly
360,1,ROOM_23D3FD9A..FACE1_GLZ1,Surface Window Heat Loss Energy [J] !Hourly
361,1,ROOM_482322B2..FACE1_GLZ1,Surface Window Heat Gain Energy [J] !Hourly
362,1,ROOM_482322B2..FACE1_GLZ1,Surface Window Heat Loss Energy [J] !Hourly
363,1,ROOM_482322B2..FACE2_GLZ1,Surface Window Heat Gain Energy [J] !Hourly
364,1,ROOM_482322B2..FACE2_GLZ1,Surface Window Heat Loss Energy [J] !Hourly
365,1,ROOM_8F0F417A..FACE3_GLZ1,Surface Window Heat Gain Energy [J] !Hourly
366,1,ROOM_8F0F417A..FACE3_GLZ1,Surface Window Heat Loss Energy [J] !Hourly
367,1,ROOM_8F0F417A..FACE4_GLZ1,Surface Window Heat Gain Energy [J] !Hourly
368,1,ROOM_8F0F417A..FACE4_GLZ1,Surface Window Heat Loss Energy [J] !Hourly
369,1,ROOM_B9128369..FACE1_GLZ1,Surface Window Heat Gain Energy [J] !Hourly
370,1,ROOM_B9128369..FACE1_GLZ1,Surface Window Heat Loss Energy [J] !Hourly
371,1,ROOM_B9128369..FACE3_GLZ1,Surface Window Heat Gain Energy [J] !Hourly
372,1,ROOM_B9128369..FACE3_GLZ1,Surface Window Heat Loss Energy [J] !Hourly
373,1,ROOM_B9128369..FACE4_GLZ1,Surface Window Heat Gain Energy [J] !Hourly
374,1,ROOM_B9128369..FACE4_GLZ1,Surface Window Heat Loss Energy [J] !Hourly
375,1,ROOM_B9128369..FACE5_GLZ1,Surface Window Heat Gain Energy [J] !Hourly
376,1,ROOM_B9128369..FACE5_GLZ1,Surface Window Heat Loss Energy [J] !Hourly
377,1,ROOM_B9128369..FACE6_GLZ1,Surface Window Heat Gain Energy [J] !Hourly
378,1,ROOM_B9128369..FACE6_GLZ1,Surface Window Heat Loss Energy [J] !Hourly
379,1,ROOM_C0A6F715..FACE1_GLZ1,Surface Window Heat Gain Energy [J] !Hourly
380,1,ROOM_C0A6F715..FACE1_GLZ1,Surface Window Heat Loss Energy [J] !Hourly
381,1,ROOM_C0A6F715..FACE2_GLZ1,Surface Window Heat Gain Energy [J] !Hourly
382,1,ROOM_C0A6F715..FACE2_GLZ1,Surface Window Heat Loss Energy [J] !Hourly
383,1,ROOM_C0A6F715..FACE4_GLZ1,Surface Window Heat Gain Energy [J] !Hourly
384,1,ROOM_C0A6F715..FACE4_GLZ1,Surface Window Heat Loss Energy [J] !Hourly
385,1,ROOM_DBBD6D4B..FACE4_GLZ1,Surface Window Heat Gain Energy [J] !Hourly
386,1,ROOM_DBBD6D4B..FACE4_GLZ1,Surface Window Heat Loss Energy [J] !Hourly
387,1,ROOM_DBBD6D4B..FACE5_GLZ1,Surface Window Heat Gain Energy [J] !Hourly
388,1,ROOM_DBBD6D4B..FACE5_GLZ1,Surface Window Heat Loss Energy [J] !Hourly
389,1,ROOM_EAB229BF..FACE1_GLZ1,Surface Window Heat Gain Energy [J] !Hourly
390,1,ROOM_EAB229BF..FACE1_GLZ1,Surface Window Heat Loss Energy [J] !Hourly
391,1,ROOM_23D3FD9A..FACE1,Surface Outside Face Solar Radiation Heat Gain Energy [J] !Hourly
392,1,ROOM_23D3FD9A..FACE1,Surface Average Face Conduction Heat Transfer Energy [J] !Hourly
393,1,ROOM_23D3FD9A..FACE2,Surface Average Face Conduction Heat Transfer Energy [J] !Hourly
394,1,ROOM_23D3FD9A..FACE3,Surface Average Face Conduction Heat Transfer Energy [J] !Hourly
395,1,ROOM_23D3FD9A..FACE4,Surface Average Face Conduction Heat Transfer Energy [J] !Hourly
396,1,ROOM_23D3FD9A..FACE5,Surface Average Face Conduction Heat Transfer Energy [J] !Hourly
397,1,ROOM_23D3FD9A..FACE0,Surface Average Face Conduction Heat Transfer Energy [J] !Hourly
398,1,ROOM_23D3FD9A..FACE6,Surface Average Face Conduction Heat Transfer Energy [J] !Hourly
399,1,ROOM_482322B2..FACE1,Surface Outside Face Solar Radiation Heat Gain Energy [J] !Hourly
400,1,ROOM_482322B2..FACE1,Surface Average Face Conduction Heat Transfer Energy [J] !Hourly
401,1,ROOM_482322B2..FACE2,Surface Outside Face Solar Radiation Heat Gain Energy [J] !Hourly
402,1,ROOM_482322B2..FACE2,Surface Average Face Conduction Heat Transfer Energy [J] !Hourly
403,1,ROOM_482322B2..FACE3,Surface Average Face Conduction Heat Transfer Energy [J] !Hourly
404,1,ROOM_482322B2..FACE4,Surface Average Face Conduction Heat Transfer Energy [J] !Hourly
405,1,ROOM_482322B2..FACE0,Surface Average Face Conduction Heat Transfer Energy [J] !Hourly
406,1,ROOM_482322B2..FACE5,Surface Average Face Conduction Heat Transfer Energy [J] !Hourly
407,1,ROOM_8F0F417A..FACE1,Surface Average Face Conduction Heat Transfer Energy [J] !Hourly
408,1,ROOM_8F0F417A..FACE2,Surface Average Face Conduction Heat Transfer Energy [J] !Hourly
409,1,ROOM_8F0F417A..FACE3,Surface Outside Face Solar Radiation Heat Gain Energy [J] !Hourly
410,1,ROOM_8F0F417A..FACE3,Surface Average Face Conduction Heat Transfer Energy [J] !Hourly
411,1,ROOM_8F0F417A..FACE4,Surface Outside Face Solar Radiation Heat Gain Energy [J] !Hourly
412,1,ROOM_8F0F417A..FACE4,Surface Average Face Conduction Heat Transfer Energy [J] !Hourly
413,1,ROOM_8F0F417A..FACE5,Surface Average Face Conduction Heat Transfer Energy [J] !Hourly
414,1,ROOM_8F0F417A..FACE0,Surface Average Face Conduction Heat Transfer Energy [J] !Hourly
415,1,ROOM_8F0F417A..FACE6,Surface Average Face Conduction Heat Transfer Energy [J] !Hourly
416,1,ROOM_B9128369..FACE1,Surface Outside Face Solar Radiation Heat Gain Energy [J] !Hourly
417,1,ROOM_B9128369..FACE1,Surface Average Face Conduction Heat Transfer Energy [J] !Hourly
418,1,ROOM_B9128369..FACE2,Surface Outside Face Solar Radiation Heat Gain Energy [J] !Hourly
419,1,ROOM_B9128369..FACE2,Surface Average Face Conduction Heat Transfer Energy [J] !Hourly
420,1,ROOM_B9128369..FACE3,Surface Outside Face Solar Radiation Heat Gain Energy [J] !Hourly
421,1,ROOM_B9128369..FACE3,Surface Average Face Conduction Heat Transfer Energy [J] !Hourly
422,1,ROOM_B9128369..FACE4,Surface Outside Face Solar Radiation Heat Gain Energy [J] !Hourly
423,1,ROOM_B9128369..FACE4,Surface Average Face Conduction Heat Transfer Energy [J] !Hourly
424,1,ROOM_B9128369..FACE5,Surface Outside Face Solar Radiation Heat Gain Energy [J] !Hourly
425,1,ROOM_B9128369..FACE5,Surface Average Face Conduction Heat Transfer Energy [J] !Hourly
426,1,ROOM_B9128369..FACE6,Surface Outside Face Solar Radiation Heat Gain Energy [J] !Hourly
427,1,ROOM_B9128369..FACE6,Surface Average Face Conduction Heat Transfer Energy [J] !Hourly
428,1,ROOM_B9128369..FACE0,Surface Average Face Conduction Heat Transfer Energy [J] !Hourly
429,1,ROOM_B9128369..FACE7,Surface Average Face Conduction Heat Transfer Energy [J] !Hourly
430,1,ROOM_C0A6F715..FACE1,Surface Outside Face Solar Radiation Heat Gain Energy [J] !Hourly
431,1,ROOM_C0A6F715..FACE1,Surface Average Face Conduction Heat Transfer Energy [J] !Hourly
432,1,ROOM_C0A6F715..FACE2,Surface Outside Face Solar Radiation Heat Gain Energy [J] !Hourly
433,1,ROOM_C0A6F715..FACE2,Surface Average Face Conduction Heat Transfer Energy [J] !Hourly
434,1,ROOM_C0A6F715..FACE3,Surface Average Face Conduction Heat Transfer Energy [J] !Hourly
435,1,ROOM_C0A6F715..FACE4,Surface Outside Face Solar Radiation Heat Gain Energy [J] !Hourly
436,1,ROOM_C0A6F715..FACE4,Surface Average Face Conduction Heat Transfer Energy [J] !Hourly
437,1,ROOM_C0A6F715..FACE0,Surface Average Face Conduction Heat Transfer Energy [J] !Hourly
438,1,ROOM_C0A6F715..FACE5,Surface Average Face Conduction Heat Transfer Energy [J] !Hourly
439,1,ROOM_DBBD6D4B..FACE1,Surface Average Face Conduction Heat Transfer Energy [J] !Hourly
440,1,ROOM_DBBD6D4B..FACE2,Surface Average Face Conduction Heat Transfer Energy [J] !Hourly
441,1,ROOM_DBBD6D4B..FACE3,Surface Average Face Conduction Heat Transfer Energy [J] !Hourly
442,1,ROOM_DBBD6D4B..FACE4,Surface Outside Face Solar Radiation Heat Gain Energy [J] !Hourly
443,1,ROOM_DBBD6D4B..FACE4,Surface Average Face Conduction Heat Transfer Energy [J] !Hourly
444,1,ROOM_DBBD6D4B..FACE5,Surface Outside Face Solar Radiation Heat Gain Energy [J] !Hourly
445,1,ROOM_DBBD6D4B..FACE5,Surface Average Face Conduction Heat Transfer Energy [J] !Hourly
446,1,ROOM_DBBD6D4B..FACE0,Surface Average Face Conduction Heat Transfer Energy [J] !Hourly
447,1,ROOM_DBBD6D4B..FACE6,Surface Average Face Conduction Heat Transfer Energy [J] !Hourly
448,1,ROOM_EAB229BF..FACE1,Surface Outside Face Solar Radiation Heat Gain Energy [J] !Hourly
449,1,ROOM_EAB229BF..FACE1,Surface Average Face Conduction Heat Transfer Energy [J] !Hourly
450,1,ROOM_EAB229BF..FACE2,Surface Average Face Conduction Heat Transfer Energy [J] !Hourly
451,1,ROOM_EAB229BF..FACE3,Surface Average Face Conduction Heat Transfer Energy [J] !Hourly
452,1,ROOM_EAB229BF..FACE4,Surface Average Face Conduction Heat Transfer Energy [J] !Hourly
453,1,ROOM_EAB229BF..FACE0,Surface Average Face Conduction Heat Transfer Energy [J] !Hourly
454,1,ROOM_EAB229BF..FACE5,Surface Average Face Conduction Heat Transfer Energy [J] !Hourly
455,1,ROOM_23D3FD9A,Zone Infiltration Total Heat Loss Energy [J] !Hourly
456,1,ROOM_23D3FD9A,Zone Infiltration Total Heat Gain Energy [J] !Hourly
457,1,ROOM_482322B2,Zone Infiltration Total Heat Loss Energy [J] !Hourly
458,1,ROOM_482322B2,Zone Infiltration Total Heat Gain Energy [J] !Hourly
459,1,ROOM_8F0F417A,Zone Infiltration Total Heat Loss Energy [J] !Hourly
460,1,ROOM_8F0F417A,Zone Infiltration Total Heat Gain Energy [J] !Hourly
461,1,ROOM_B9128369,Zone Infiltration Total Heat Loss Energy [J] !Hourly
462,1,ROOM_B9128369,Zone Infiltration Total Heat Gain Energy [J] !Hourly
463,1,ROOM_C0A6F715,Zone Infiltration Total Heat Loss Energy [J] !Hourly
464,1,ROOM_C0A6F715,Zone Infiltration Total Heat Gain Energy [J] !Hourly
465,1,ROOM_DBBD6D4B,Zone Infiltration Total Heat Loss Energy [J] !Hourly
466,1,ROOM_DBBD6D4B,Zone Infiltration Total Heat Gain Energy [J] !Hourly
467,1,ROOM_EAB229BF,Zone Infiltration Total Heat Loss Energy [J] !Hourly
468,1,ROOM_EAB229BF,Zone Infiltration Total Heat Gain Energy [J] !Hourly
954,1,ROOM_23D3FD9A IDEAL LOADS AIR SYSTEM,Zone Ideal Loads Supply Air Total Heating Energy [J] !Hourly
1003,1,ROOM_23D3FD9A IDEAL LOADS AIR SYSTEM,Zone Ideal Loads Supply Air Total Cooling Energy [J] !Hourly
1052,1,ROOM_23D3FD9A IDEAL LOADS AIR SYSTEM,Zone Ideal Loads Zone Total Heating Energy [J] !Hourly
1053,1,ROOM_23D3FD9A IDEAL LOADS AIR SYSTEM,Zone Ideal Loads Zone Total Cooling Energy [J] !Hourly
1054,1,ROOM_482322B2 IDEAL LOADS AIR SYSTEM,Zone Ideal Loads Supply Air Total Heating Energy [J] !Hourly
1055,1,ROOM_482322B2 IDEAL LOADS AIR SYSTEM,Zone Ideal Loads Supply Air Total Cooling Energy [J] !Hourly
1056,1,ROOM_482322B2 IDEAL LOADS AIR SYSTEM,Zone Ideal Loads Zone Total Heating Energy [J] !Hourly
1057,1,ROOM_482322B2 IDEAL LOADS AIR SYSTEM,Zone Ideal Loads Zone Total Cooling Energy [J] !Hourly
1058,1,ROOM_8F0F417A IDEAL LOADS AIR SYSTEM,Zone Ideal Loads Supply Air Total Heating Energy [J] !Hourly
1059,1,ROOM_8F0F417A IDEAL LOADS AIR SYSTEM,Zone Ideal Loads Supply Air Total Cooling Energy [J] !Hourly
1060,1,ROOM_8F0F417A IDEAL LOADS AIR SYSTEM,Zone Ideal Loads Zone Total Heating Energy [J] !Hourly
1061,1,ROOM_8F0F417A IDEAL LOADS AIR SYSTEM,Zone Ideal Loads Zone Total Cooling Energy [J] !Hourly
1062,1,ROOM_B9128369 IDEAL LOADS AIR SYSTEM,Zone Ideal Loads Supply Air Total Heating Energy [J] !Hourly
1063,1,ROOM_B9128369 IDEAL LOADS AIR SYSTEM,Zone Ideal Loads Supply Air Total Cooling Energy [J] !Hourly
1064,1,ROOM_B9128369 IDEAL LOADS AIR SYSTEM,Zone Ideal Loads Zone Total Heating Energy [J] !Hourly
1065,1,ROOM_B9128369 IDEAL LOADS AIR SYSTEM,Zone Ideal Loads Zone Total Cooling Energy [J] !Hourly
1066,1,ROOM_C0A6F715 IDEAL LOADS AIR SYSTEM,Zone Ideal Loads Supply Air Total Heating Energy [J] !Hourly
1067,1,ROOM_C0A6F715 IDEAL LOADS AIR SYSTEM,Zone Ideal Loads Supply Air Total Cooling Energy [J] !Hourly
1068,1,ROOM_C0A6F715 IDEAL LOADS AIR SYSTEM,Zone Ideal Loads Zone Total Heating Energy [J] !Hourly
1069,1,ROOM_C0A6F715 IDEAL LOADS AIR SYSTEM,Zone Ideal Loads Zone Total Cooling Energy [J] !Hourly
1070,1,ROOM_DBBD6D4B IDEAL LOADS AIR SYSTEM,Zone Ideal Loads Supply Air Total Heating Energy [J] !Hourly
1071,1,ROOM_DBBD6D4B IDEAL LOADS AIR SYSTEM,Zone Ideal Loads Supply Air Total Cooling Energy [J] !Hourly
1072,1,ROOM_DBBD6D4B IDEAL LOADS AIR SYSTEM,Zone Ideal Loads Zone Total Heating Energy [J] !Hourly
1073,1,ROOM_DBBD6D4B IDEAL LOADS AIR SYSTEM,Zone Ideal Loads Zone Total Cooling Energy [J] !Hourly
1074,1,ROOM_EAB229BF IDEAL LOADS AIR SYSTEM,Zone Ideal Loads Supply Air Total Heating Energy [J] !Hourly
1075,1,ROOM_EAB229BF IDEAL LOADS AIR SYSTEM,Zone Ideal Loads Supply Air Total Cooling Energy [J] !Hourly
1076,1,ROOM_EAB229BF IDEAL LOADS AIR SYSTEM,Zone Ideal Loads Zone Total Heating Energy [J] !Hourly
1077,1,ROOM_EAB229BF IDEAL LOADS AIR SYSTEM,Zone Ideal Loads Zone Total Cooling Energy [J] !Hourly
End of Data Dictionary
1,RUN PERIOD 1,  42.37, -71.02,  -5.00,   6.00
2,1, 1, 1, 0, 1, 0.00,60.00,Sunday
7,0.0
8,0.0
9,0.0
10,0.0
11,0.0
12,0.0
13,0.0
352,0.0
353,0.0
354,0.0
355,0.0
356,0.0
357,0.0
358,0.0
359,0.0
360,178917.09906011675
361,0.0
362,244998.83025110333
363,0.0
364,330990.21918158218
365,0.0
366,258506.9070293118
367,0.0
368,465110.83320215219
369,0.0
370,96053.40045914822
371,0.0
372,71892.67470732068
373,0.0
374,195289.1883230886
375,0.0
376,107494.51468403086
377,0.0
378,236706.76668930899
379,0.0
380,323723.58676076596
381,0.0
382,248940.4393014956
383,0.0
384,234391.62168119709
385,0.0
386,166224.4361281411
387,0.0
388,252908.63655719689
389,0.0
390,241320.41503030799
391,0.0
392,-327062.7059188732
393,10345.268729185656
394,-17030.575530676815
395,-11054.352515720553
396,-31850.867468252087
397,137589.1792699321
398,23086.13017140419
399,0.0
400,-459182.7255109763
401,0.0
402,-230284.10653377279
403,-15842.225487286058
404,32982.6917196559
405,198133.97524903646
406,30289.697928623595
407,36155.12200362274
408,16831.836422244785
409,0.0
410,-176948.5583389075
411,0.0
412,-206099.21944923188
413,-12213.52103323858
414,92152.22414299939
415,11150.982941016848
416,0.0
417,-40912.39219857181
418,0.0
419,-173493.18813760524
420,0.0
421,-32423.07362818427
422,0.0
423,-115334.38898992657
424,0.0
425,-48455.92729615818
426,0.0
427,-171882.44478918933
428,45682.61337553523
429,1869.8340814265512
430,0.0
431,-311948.707950164
432,0.0
433,-472655.88175841138
434,40999.79694689123
435,0.0
436,-102419.70797172186
437,238398.41401305967
438,33517.670161837996
439,11804.511958119287
440,18186.28745732765
441,7382.04486534768
442,0.0
443,-73499.15896613994
444,0.0
445,-153429.0994838393
446,33421.8026445117
447,3130.7031555584997
448,0.0
449,-440570.7392828906
450,-22484.680877666673
451,-32854.0613639788
452,2469.31399365923
453,185380.35756499589
454,30578.094596554038
455,106568.01237961062
456,0.0
457,355719.62519954176
458,0.0
459,460006.9494420449
460,0.0
461,551622.0044365622
462,0.0
463,519009.5747249231
464,0.0
465,273427.0086935399
466,0.0
467,143102.7234994498
468,0.0
954,394693.29620070839
1003,0.0
1052,47103.87765631575
1053,15680.829497499864
1054,1104580.3341029373
1055,0.0
1056,588992.182572239
1057,0.0
1058,2003076.4386973964
1059,0.0
1060,1190162.6278828502
1061,0.0
1062,1832548.9347236346
1063,0.0
1064,1612184.0924287667
1065,0.0
1066,1512224.5202185005
1067,0.0
1068,978937.9417896315
1069,0.0
1070,1048120.6930541763
1071,0.0
1072,752241.6068294515
1073,0.0
1074,504891.74807717718
1075,0.0
1076,60437.97285592516
1077,43356.402005678865
2,1, 1, 1, 0, 2, 0.00,60.00,Sunday
7,0.0
8,0.0
9,0.0
10,0.0
11,0.0
12,0.0
13,0.0
352,0.0
353,0.0
354,0.0
355,0.0
356,0.0
357,0.0
358,0.0
359,0.0
360,140222.29384442428
361,0.0
362,191065.63869209568
363,0.0
364,258218.1220278737
365,0.0
366,200548.720011974
367,0.0
368,360657.34641973578
369,0.0
370,74844.97897441697
371,0.0
372,55131.67659786556
373,0.0
374,149592.6002904162
375,0.0
376,82261.8569009185
377,0.0
378,181318.2044905717
379,0.0
380,251571.25794930274
381,0.0
382,193560.5125870806
383,0.0
384,183883.85273120274
385,0.0
386,128708.37742639942
387,0.0
388,196340.932617858
389,0.0
390,189327.69243422064
391,0.0
392,-136248.32811027478
393,8758.468619353636
394,-15867.838749852974
395,-10299.63332052547
396,-30856.56278794397
397,118179.53361370563
398,18408.402076482213
399,0.0
400,-189778.2986933883
401,0.0
402,94867.02610029423
403,-14773.21574520839
404,29781.07665117379
405,164135.9647500389
406,22002.717642553973
407,32824.832405579386
408,14746.702148622757
409,0.0
410,86194.263693382
411,0.0
412,250642.9004368604
413,-11342.475883544736
414,64640.05496387824
415,4742.656925389187
416,0.0
417,60750.5610706972
418,0.0
419,-66470.3421357753
420,0.0
421,44504.647797927595
422,0.0
423,95074.74226407409
424,0.0
425,66461.82049342229
426,0.0
427,86067.58137961646
428,27915.012253594574
429,-1392.5076634929097
430,0.0
431,19053.79150839051
432,0.0
433,-194077.22492024606
434,37262.9484961276
435,0.0
436,122156.30161988455
437,195128.0495371351
438,23306.1635921914
439,10585.072637808373
440,16307.59276036573
441,6719.688810843563
442,0.0
443,92165.11958063195
444,0.0
445,98844.47365795452
446,21464.096306619474
447,437.819478363191
448,0.0
449,-184076.4841618667
450,-22231.61241456242
451,-30656.180433661302
452,1087.7590633003306
453,159128.52946899448
454,24567.335859323583
455,80169.58415540299
456,0.0
457,273677.55445739839
458,0.0
459,351732.65979497789
460,0.0
461,439527.07332557099
462,0.0
463,404049.30484441577
464,0.0
465,212488.6815689861
466,0.0
467,107654.12648868328
468,0.0
954,302830.1904090698
1003,0.0
1052,50162.71873616918
1053,23817.70030416702
1054,887419.7253051126
1055,0.0
1056,485276.621197845
1057,0.0
1058,1640315.383647468
1059,0.0
1060,1010612.4007221942
1061,0.0
1062,1547650.5087297625
1063,0.0
1064,1368236.4928718012
1065,0.0
1066,1231386.490389704
1067,0.0
1068,809777.8154510278
1069,0.0
1070,868707.6688820104
1071,0.0
1072,635297.2910577457
1073,0.0
1074,382214.9079272376
1075,0.0
1076,67321.685454284
1077,56379.37034918141
2,1, 1, 1, 0, 3, 0.00,60.00,Sunday
7,0.0
8,0.0
9,0.0
10,0.0
11,0.0
12,0.0
13,0.0
352,0.0
353,0.0
354,0.0
355,0.0
356,0.0
357,0.0
358,0.0
359,0.0
360,143044.77475559619
361,0.0
362,195028.69322893246
363,0.0
364,263530.97211856409
365,0.0
366,205618.5861712602
367,0.0
368,369809.4343956925
369,0.0
370,77130.70041108376
371,0.0
372,56706.76536095396
373,0.0
374,153797.050538907
375,0.0
376,84582.7941306232
377,0.0
378,186485.24270393313
379,0.0
380,256705.40588973958
381,0.0
382,197518.12271125173
383,0.0
384,187863.80769491592
385,0.0
386,132081.38478797599
387,0.0
388,201556.6189554007
389,0.0
390,193047.40294922915
391,0.0
392,-189596.64105168335
393,9636.14460242659
394,-14284.206511545515
395,-9271.715679928027
396,-28371.753665330078
397,105072.70489780337
398,16062.843515192415
399,0.0
400,-263894.77405154859
401,0.0
402,-31198.429371398146
403,-10632.17197593034
404,32103.71113496316
405,148428.76748942416
406,19711.93821393745
407,32680.014310623617
408,15488.305179003375
409,0.0
410,-16232.368591607363
411,0.0
412,60020.84020695555
413,-8215.647633861901
414,60373.524254319476
415,5328.869321323044
416,0.0
417,17976.901816066274
418,0.0
419,-95243.02185799476
420,0.0
421,13301.245037108387
422,0.0
423,12837.521488900378
424,0.0
425,20013.29125226364
426,0.0
427,-11890.73161770103
428,25185.100809848198
429,-395.74403847505109
430,0.0
431,-99480.16397009687
432,0.0
433,-269872.0666510837
434,40725.90592735031
435,0.0
436,26919.448331936423
437,178352.91189911474
438,21180.472072733184
439,10611.147742263638
440,16347.764632509778
441,9702.892164276116
442,0.0
443,23442.54425014261
444,0.0
445,-2402.592769160052
446,19711.348695396897
447,847.1008035765357
448,0.0
449,-255356.00159360088
450,-20020.31389860334
451,-27311.916864472132
452,2324.012870290655
453,142011.6267077612
454,21747.25036384366
455,89348.97684482984
456,0.0
457,302937.265371954
458,0.0
459,390294.6362558951
460,0.0
461,474203.7502249336
462,0.0
463,444533.52022495967
464,0.0
465,234070.34675766983
466,0.0
467,119980.49478223911
468,0.0
954,342769.3646662865
1003,0.0
1052,31569.65448947845
1053,1186.0155285379756
1054,950537.470190104
1055,0.0
1056,498168.68836224076
1057,0.0
1058,1688399.7521914873
1059,0.0
1060,978760.4781597811
1061,0.0
1062,1574102.2090528967
1063,0.0
1064,1376999.528377287
1065,0.0
1066,1307218.374376924
1067,0.0
1068,835314.9553465444
1069,0.0
1070,888378.6683574747
1071,0.0
1072,626827.4823310035
1073,0.0
1074,435989.1995154426
1075,0.0
1076,31145.79499743562
1077,14637.546662683962
2,1, 1, 1, 0, 4, 0.00,60.00,Sunday
7,0.0
8,0.0
9,0.0
10,0.0
11,0.0
12,0.0
13,0.0
352,0.0
353,0.0
354,0.0
355,0.0
356,0.0
357,0.0
358,0.0
359,0.0
360,144447.99636378798
361,0.0
362,197000.05395981088
363,0.0
364,266048.13715386969
365,0.0
366,208470.94733806357
367,0.0
368,374975.7887963735
369,0.0
370,78334.32149628013
371,0.0
372,57540.10222833787
373,0.0
374,156031.86571395046
375,0.0
376,85820.94504422305
377,0.0
378,189289.23947055386
379,0.0
380,259104.2524396986
381,0.0
382,199368.08866630804
383,0.0
384,189535.1536332399
385,0.0
386,133987.04290654287
387,0.0
388,204548.84003182993
389,0.0
390,194889.23790242643
391,0.0
392,-207649.60726632569
393,9745.542746694582
394,-13360.531568591388
395,-8672.168799614983
396,-27972.025874578652
397,94682.46696296358
398,14539.207240873711
399,0.0
400,-289203.00977190388
401,0.0
402,-94551.05290380394
403,-8797.609425498862
404,32027.521686802866
405,135633.2131949435
406,17893.201387768262
407,31149.590988695727
408,14236.390283179195
409,0.0
410,-68092.72194177298
411,0.0
412,-40856.58072620568
413,-7593.375448321556
414,57246.74146792914
415,5920.733566525727
416,0.0
417,-4446.87813550913
418,0.0
419,-105465.66576158378
420,0.0
421,-3461.9791180158574
422,0.0
423,-30158.93777769494
424,0.0
425,-4994.128375400011
426,0.0
427,-61403.08776306306
428,23313.620519762364
429,432.58640351751799
430,0.0
431,-155385.53213368334
432,0.0
433,-295841.046030401
434,41087.35945295848
435,0.0
436,-22975.944643832852
437,165302.0887593648
438,19522.45615064586
439,10212.323969177654
440,15733.32806724636
441,10147.113542350802
442,0.0
443,-13059.00503281887
444,0.0
445,-53669.65075478578
446,18621.91016805798
447,1267.028640574204
448,0.0
449,-279663.7785489134
450,-19614.562333235895
451,-25190.280199276567
452,2546.3010262367836
453,128054.25556900235
454,19766.611533827345
455,94073.07604780815
456,0.0
457,316047.3115769353
458,0.0
459,408282.0662556591
460,0.0
461,486704.24228333597
462,0.0
463,461273.86510682289
464,0.0
465,243104.62220787348
466,0.0
467,126324.15896708325
468,0.0
954,377670.3842983149
1003,0.0
1052,47054.661314375044
1053,0.0
1054,1007173.7014513481
1055,0.0
1056,532951.0932850946
1057,0.0
1058,1733271.366296656
1059,0.0
1060,987218.6812717678
1061,0.0
1062,1605199.0431824343
1063,0.0
1064,1402373.8671961139
1065,0.0
1066,1373813.5235842127
1067,0.0
1068,882015.6315688195
1069,0.0
1070,908707.1184612266
1071,0.0
1072,635855.358852848
1073,0.0
1074,482851.88332105395
1075,0.0
1076,38891.1366505711
1077,0.0
2,1, 1, 1, 0, 5, 0.00,60.00,Sunday
7,0.0
8,0.0
9,0.0
10,0.0
11,0.0
12,0.0
13,0.0
352,0.0
353,0.0
354,0.0
355,0.0
356,0.0
357,0.0
358,0.0
359,0.0
360,143662.99588086687
361,0.0
362,195966.9805264202
363,0.0
364,264522.51187169688
365,0.0
366,207931.7404353153
367,0.0
368,373991.7266575549
369,0.0
370,78089.70179314338
371,0.0
372,57383.19528852007
373,0.0
374,155618.58003468064
375,0.0
376,85597.65220624869
377,0.0
378,188840.86637236255
379,0.0
380,257542.09313689656
381,0.0
382,198189.74443845629
383,0.0
384,188158.01104203298
385,0.0
386,133675.46503141357
387,0.0
388,204122.149089045
389,0.0
390,193803.41156747839
391,0.0
392,-203885.00566391822
393,9376.992413743174
394,-12727.493788320957
395,-8261.271189826426
396,-28559.185093314278
397,85594.31986303898
398,13246.84837351255
399,0.0
400,-283880.21537337158
401,0.0
402,-114814.89325610386
403,-7741.027885107425
404,30965.850223730835
405,124428.42712647362
406,16008.515043005025
407,29165.81878321938
408,12547.216417495867
409,0.0
410,-85053.81218185334
411,0.0
412,-79132.82184326649
413,-7644.990122394833
414,52942.916621059274
415,5879.288676439375
416,0.0
417,-12249.457709734148
418,0.0
419,-103728.53948140107
420,0.0
421,-9831.711945669607
422,0.0
423,-45166.20467026213
424,0.0
425,-14580.903089056896
426,0.0
427,-77173.38001174759
428,20734.947927098892
429,737.2765770665528
430,0.0
431,-169371.82783060609
432,0.0
433,-290359.7949064937
434,40151.48724591799
435,0.0
436,-40908.476669757576
437,150965.48723365199
438,17555.493396524635
439,9659.23491835827
440,14881.227065240644
441,9845.189508392885
442,0.0
443,-26952.705963036373
444,0.0
445,-70751.18065279482
446,17058.4647733852
447,1386.856861676548
448,0.0
449,-274633.3576173698
450,-19486.136665485017
451,-23781.671631959427
452,2264.250458522493
453,115782.20600702196
454,18044.93194368064
455,96311.4495473347
456,0.0
457,321401.67591440505
458,0.0
459,415946.98883242989
460,0.0
461,490700.9636121462
462,0.0
463,467569.2977038659
464,0.0
465,246545.32721388708
466,0.0
467,129329.91498797178
468,0.0
954,402166.4563890826
1003,0.0
1052,63023.247146336784
1053,635.778289876103
1054,1039706.5496259687
1055,0.0
1056,558406.8320433429
1057,2630.282971489146
1058,1750899.5429370038
1059,0.0
1060,991583.6453586844
1061,3469.4098586452585
1062,1615720.266108438
1063,0.0
1064,1412429.7181891879
1065,1772.736478411423
1066,1415779.4532783833
1067,0.0
1068,919235.2480934886
1069,3571.40411373353
1070,916196.7060082839
1071,0.0
1072,640511.8583704816
1073,1931.8404508453626
1074,513593.922861141
1075,0.0
1076,58181.66162762698
1077,853.1957851353169
2,1, 1, 1, 0, 6, 0.00,60.00,Sunday
7,0.0
8,0.0
9,0.0
10,0.0
11,0.0
12,0.0
13,0.0
352,0.0
353,0.0
354,0.0
355,0.0
356,0.0
357,0.0
358,0.0
359,0.0
360,143434.10779644608
361,0.0
362,195677.42258817916
363,0.0
364,264395.6347112104
365,0.0
366,208417.41959263903
367,0.0
368,374857.01239893239
369,0.0
370,78361.94748371237
371,0.0
372,57524.22378215096
373,0.0
374,155952.67424461334
375,0.0
376,85774.87115171226
377,0.0
378,189120.11138132495
379,0.0
380,256994.09469086305
381,0.0
382,197788.72660824168
383,0.0
384,188292.89423280787
385,0.0
386,134012.93156493287
387,0.0
388,204524.5094907501
389,0.0
390,193465.17628177696
391,0.0
392,-200606.59138765699
393,9019.400514622695
394,-12167.821868749774
395,-7897.9945242231019
396,-29066.592342313903
397,77616.24668629209
398,12136.411703556507
399,0.0
400,-279138.0382263557
401,0.0
402,-121639.9347486452
403,-6748.115696858038
404,29826.0914649904
405,114528.14051713106
406,14322.104278414772
407,27378.557809991726
408,11060.530612456201
409,0.0
410,-90729.85623415488
411,0.0
412,-92636.38617064666
413,-7647.090974917191
414,48817.42812726383
415,5653.600758583379
416,0.0
417,-17399.94541418612
418,0.0
419,-101965.80184346676
420,0.0
421,-12143.52328345516
422,0.0
423,-50572.84042588915
424,0.0
425,-17828.80916261497
426,0.0
427,-83999.93288512522
428,18324.484044873396
429,851.039088662283
430,0.0
431,-174640.70368288458
432,0.0
433,-285442.42619478158
434,39299.28389819361
435,0.0
436,-50076.321124461305
437,137196.30407883269
438,15690.239050129494
439,9153.047274046074
440,14101.383388562639
441,9600.43783799224
442,0.0
443,-31818.758261265546
444,0.0
445,-78873.61282053181
446,15565.813441596376
447,1400.7070236947837
448,0.0
449,-270239.2272371183
450,-19389.98420048
451,-22559.18299253321
452,1977.98139231282
453,105071.75404139215
454,16551.59736578518
455,96920.98743861911
456,0.0
457,321943.8724556239
458,0.0
459,417130.04739276916
460,0.0
461,489348.6315890672
462,0.0
463,467458.13420995089
464,0.0
465,246555.35195965408
466,0.0
467,130148.42112456139
468,0.0
954,423577.65518379726
1003,0.0
1052,82865.75185196025
1053,1618.3956765462236
1054,1068470.3288028786
1055,0.0
1056,586822.8128117125
1057,3395.950393939086
1058,1767254.2609763127
1059,0.0
1060,1006844.3722227595