Program Version,EnergyPlus, Version 9.3.0-baff08990c, YMD=2021.04.24 20:47
1,5,Environment Title[],Latitude[deg],Longitude[deg],Time Zone[],Elevation[m]
2,8,Day of Simulation[],Month[],Day of Month[],DST Indicator[1=yes 0=no],Hour[],StartMinute[],EndMinute[],DayType
3,5,Cumulative Day of Simulation[],Month[],Day of Month[],DST Indicator[1=yes 0=no],DayType  ! When Daily Report Variables Requested
4,2,Cumulative Days of Simulation[],Month[]  ! When Monthly Report Variables Requested
5,1,Cumulative Days of Simulation[] ! When Run Period Report Variables Requested
6,1,Calendar Year of Simulation[] ! When Annual Report Variables Requested
7,1,ROOM_093AC67C,Zone People Total Heating Energy [J] !Hourly
8,1,ROOM_1FCE56F7,Zone People Total Heating Energy [J] !Hourly
9,1,ROOM_3885B4DD,Zone People Total Heating Energy [J] !Hourly
10,1,ROOM_559049DE,Zone People Total Heating Energy [J] !Hourly
11,1,ROOM_7D709F92,Zone People Total Heating Energy [J] !Hourly
12,1,ROOM_AAB59669,Zone People Total Heating Energy [J] !Hourly
13,1,ROOM_E1701F16,Zone People Total Heating Energy [J] !Hourly
352,1,ROOM_093AC67C,Zone Windows Total Transmitted Solar Radiation Energy [J] !Hourly
353,1,ROOM_1FCE56F7,Zone Windows Total Transmitted Solar Radiation Energy [J] !Hourly
354,1,ROOM_3885B4DD,Zone Windows Total Transmitted Solar Radiation Energy [J] !Hourly
355,1,ROOM_559049DE,Zone Windows Total Transmitted Solar Radiation Energy [J] !Hourly
356,1,ROOM_7D709F92,Zone Windows Total Transmitted Solar Radiation Energy [J] !Hourly
357,1,ROOM_AAB59669,Zone Windows Total Transmitted Solar Radiation Energy [J] !Hourly
358,1,ROOM_E1701F16,Zone Windows Total Transmitted Solar Radiation Energy [J] !Hourly
359,1,ROOM_093AC67C..FACE3_GLZ1,Surface Window Heat Gain Energy [J] !Hourly
360,1,ROOM_093AC67C..FACE3_GLZ1,Surface Window Heat Loss Energy [J] !Hourly
361,1,ROOM_093AC67C..FACE4_GLZ1,Surface Window Heat Gain Energy [J] !Hourly
362,1,ROOM_093AC67C..FACE4_GLZ1,Surface Window Heat Loss Energy [J] !Hourly
363,1,ROOM_1FCE56F7..FACE1_GLZ1,Surface Window Heat Gain Energy [J] !Hourly
364,1,ROOM_1FCE56F7..FACE1_GLZ1,Surface Window Heat Loss Energy [J] !Hourly
365,1,ROOM_3885B4DD..FACE1_GLZ1,Surface Window Heat Gain Energy [J] !Hourly
366,1,ROOM_3885B4DD..FACE1_GLZ1,Surface Window Heat Loss Energy [J] !Hourly
367,1,ROOM_3885B4DD..FACE2_GLZ1,Surface Window Heat Gain Energy [J] !Hourly
368,1,ROOM_3885B4DD..FACE2_GLZ1,Surface Window Heat Loss Energy [J] !Hourly
369,1,ROOM_559049DE..FACE4_GLZ1,Surface Window Heat Gain Energy [J] !Hourly
370,1,ROOM_559049DE..FACE4_GLZ1,Surface Window Heat Loss Energy [J] !Hourly
371,1,ROOM_559049DE..FACE5_GLZ1,Surface Window Heat Gain Energy [J] !Hourly
372,1,ROOM_559049DE..FACE5_GLZ1,Surface Window Heat Loss Energy [J] !Hourly
373,1,ROOM_7D709F92..FACE1_GLZ1,Surface Window Heat Gain Energy [J] !Hourly
374,1,ROOM_7D709F92..FACE1_GLZ1,Surface Window Heat Loss Energy [J] !Hourly
375,1,ROOM_7D709F92..FACE2_GLZ1,Surface Window Heat Gain Energy [J] !Hourly
376,1,ROOM_7D709F92..FACE2_GLZ1,Surface Window Heat Loss Energy [J] !Hourly
377,1,ROOM_7D709F92..FACE4_GLZ1,Surface Window Heat Gain Energy [J] !Hourly
378,1,ROOM_7D709F92..FACE4_GLZ1,Surface Window Heat Loss Energy [J] !Hourly
379,1,ROOM_AAB59669..FACE1_GLZ1,Surface Window Heat Gain Energy [J] !Hourly
380,1,ROOM_AAB59669..FACE1_GLZ1,Surface Window Heat Loss Energy [J] !Hourly
381,1,ROOM_E1701F16..FACE1_GLZ1,Surface Window Heat Gain Energy [J] !Hourly
382,1,ROOM_E1701F16..FACE1_GLZ1,Surface Window Heat Loss Energy [J] !Hourly
383,1,ROOM_E1701F16..FACE3_GLZ1,Surface Window Heat Gain Energy [J] !Hourly
384,1,ROOM_E1701F16..FACE3_GLZ1,Surface Window Heat Loss Energy [J] !Hourly
385,1,ROOM_E1701F16..FACE4_GLZ1,Surface Window Heat Gain Energy [J] !Hourly
386,1,ROOM_E1701F16..FACE4_GLZ1,Surface Window Heat Loss Energy [J] !Hourly
387,1,ROOM_E1701F16..FACE5_GLZ1,Surface Window Heat Gain Energy [J] !Hourly
388,1,ROOM_E1701F16..FACE5_GLZ1,Surface Window Heat Loss Energy [J] !Hourly
389,1,ROOM_E1701F16..FACE6_GLZ1,Surface Window Heat Gain Energy [J] !Hourly
390,1,ROOM_E1701F16..FACE6_GLZ1,Surface Window Heat Loss Energy [J] !Hourly
391,1,ROOM_093AC67C..FACE1,Surface Average Face Conduction Heat Transfer Energy [J] !Hourly
392,1,ROOM_093AC67C..FACE2,Surface Average Face Conduction Heat Transfer Energy [J] !Hourly
393,1,ROOM_093AC67C..FACE3,Surface Outside Face Solar Radiation Heat Gain Energy [J] !Hourly
394,1,ROOM_093AC67C..FACE3,Surface Average Face Conduction Heat Transfer Energy [J] !Hourly
395,1,ROOM_093AC67C..FACE4,Surface Outside Face Solar Radiation Heat Gain Energy [J] !Hourly
396,1,ROOM_093AC67C..FACE4,Surface Average Face Conduction Heat Transfer Energy [J] !Hourly
397,1,ROOM_093AC67C..FACE5,Surface Average Face Conduction Heat Transfer Energy [J] !Hourly
398,1,ROOM_093AC67C..FACE0,Surface Average Face Conduction Heat Transfer Energy [J] !Hourly
399,1,ROOM_093AC67C..FACE6,Surface Average Face Conduction Heat Transfer Energy [J] !Hourly
400,1,ROOM_1FCE56F7..FACE1,Surface Outside Face Solar Radiation Heat Gain Energy [J] !Hourly
401,1,ROOM_1FCE56F7..FACE1,Surface Average Face Conduction Heat Transfer Energy [J] !Hourly
402,1,ROOM_1FCE56F7..FACE2,Surface Average Face Conduction Heat Transfer Energy [J] !Hourly
403,1,ROOM_1FCE56F7..FACE3,Surface Average Face Conduction Heat Transfer Energy [J] !Hourly
404,1,ROOM_1FCE56F7..FACE4,Surface Average Face Conduction Heat Transfer Energy [J] !Hourly
405,1,ROOM_1FCE56F7..FACE5,Surface Average Face Conduction Heat Transfer Energy [J] !Hourly
406,1,ROOM_1FCE56F7..FACE0,Surface Average Face Conduction Heat Transfer Energy [J] !Hourly
407,1,ROOM_1FCE56F7..FACE6,Surface Average Face Conduction Heat Transfer Energy [J] !Hourly
408,1,ROOM_3885B4DD..FACE1,Surface Outside Face Solar Radiation Heat Gain Energy [J] !Hourly
409,1,ROOM_3885B4DD..FACE1,Surface Average Face Conduction Heat Transfer Energy [J] !Hourly
410,1,ROOM_3885B4DD..FACE2,Surface Outside Face Solar Radiation Heat Gain Energy [J] !Hourly
411,1,ROOM_3885B4DD..FACE2,Surface Average Face Conduction Heat Transfer Energy [J] !Hourly
412,1,ROOM_3885B4DD..FACE3,Surface Average Face Conduction Heat Transfer Energy [J] !Hourly
413,1,ROOM_3885B4DD..FACE4,Surface Average Face Conduction Heat Transfer Energy [J] !Hourly
414,1,ROOM_3885B4DD..FACE0,Surface Average Face Conduction Heat Transfer Energy [J] !Hourly
415,1,ROOM_3885B4DD..FACE5,Surface Average Face Conduction Heat Transfer Energy [J] !Hourly
416,1,ROOM_559049DE..FACE1,Surface Average Face Conduction Heat Transfer Energy [J] !Hourly
417,1,ROOM_559049DE..FACE2,Surface Average Face Conduction Heat Transfer Energy [J] !Hourly
418,1,ROOM_559049DE..FACE3,Surface Average Face Conduction Heat Transfer Energy [J] !Hourly
419,1,ROOM_559049DE..FACE4,Surface Outside Face Solar Radiation Heat Gain Energy [J] !Hourly
420,1,ROOM_559049DE..FACE4,Surface Average Face Conduction Heat Transfer Energy [J] !Hourly
421,1,ROOM_559049DE..FACE5,Surface Outside Face Solar Radiation Heat Gain Energy [J] !Hourly
422,1,ROOM_559049DE..FACE5,Surface Average Face Conduction Heat Transfer Energy [J] !Hourly
423,1,ROOM_559049DE..FACE0,Surface Average Face Conduction Heat Transfer Energy [J] !Hourly
424,1,ROOM_559049DE..FACE6,Surface Average Face Conduction Heat Transfer Energy [J] !Hourly
425,1,ROOM_7D709F92..FACE1,Surface Outside Face Solar Radiation Heat Gain Energy [J] !Hourly
426,1,ROOM_7D709F92..FACE1,Surface Average Face Conduction Heat Transfer Energy [J] !Hourly
427,1,ROOM_7D709F92..FACE2,Surface Outside Face Solar Radiation Heat Gain Energy [J] !Hourly
428,1,ROOM_7D709F92..FACE2,Surface Average Face Conduction Heat Transfer Energy [J] !Hourly
429,1,ROOM_7D709F92..FACE3,Surface Average Face Conduction Heat Transfer Energy [J] !Hourly
430,1,ROOM_7D709F92..FACE4,Surface Outside Face Solar Radiation Heat Gain Energy [J] !Hourly
431,1,ROOM_7D709F92..FACE4,Surface Average Face Conduction Heat Transfer Energy [J] !Hourly
432,1,ROOM_7D709F92..FACE0,Surface Average Face Conduction Heat Transfer Energy [J] !Hourly
433,1,ROOM_7D709F92..FACE5,Surface Average Face Conduction Heat Transfer Energy [J] !Hourly
434,1,ROOM_AAB59669..FACE1,Surface Outside Face Solar Radiation Heat Gain Energy [J] !Hourly
435,1,ROOM_AAB59669..FACE1,Surface Average Face Conduction Heat Transfer Energy [J] !Hourly
436,1,ROOM_AAB59669..FACE2,Surface Average Face Conduction Heat Transfer Energy [J] !Hourly
437,1,ROOM_AAB59669..FACE3,Surface Average Face Conduction Heat Transfer Energy [J] !Hourly
438,1,ROOM_AAB59669..FACE4,Surface Average Face Conduction Heat Transfer Energy [J] !Hourly
439,1,ROOM_AAB59669..FACE0,Surface Average Face Conduction Heat Transfer Energy [J] !Hourly
440,1,ROOM_AAB59669..FACE5,Surface Average Face Conduction Heat Transfer Energy [J] !Hourly
441,1,ROOM_E1701F16..FACE1,Surface Outside Face Solar Radiation Heat Gain Energy [J] !Hourly
442,1,ROOM_E1701F16..FACE1,Surface Average Face Conduction Heat Transfer Energy [J] !Hourly
443,1,ROOM_E1701F16..FACE2,Surface Outside Face Solar Radiation Heat Gain Energy [J] !Hourly
444,1,ROOM_E1701F16..FACE2,Surface Average Face Conduction Heat Transfer Energy [J] !Hourly
445,1,ROOM_E1701F16..FACE3,Surface Outside Face Solar Radiation Heat Gain Energy [J] !Hourly
446,1,ROOM_E1701F16..FACE3,Surface Average Face Conduction Heat Transfer Energy [J] !Hourly
447,1,ROOM_E1701F16..FACE4,Surface Outside Face Solar Radiation Heat Gain Energy [J] !Hourly
448,1,ROOM_E1701F16..FACE4,Surface Average Face Conduction Heat Transfer Energy [J] !Hourly
449,1,ROOM_E1701F16..FACE5,Surface Outside Face Solar Radiation Heat Gain Energy [J] !Hourly
450,1,ROOM_E1701F16..FACE5,Surface Average Face Conduction Heat Transfer Energy [J] !Hourly
451,1,ROOM_E1701F16..FACE6,Surface Outside Face Solar Radiation Heat Gain Energy [J] !Hourly
452,1,ROOM_E1701F16..FACE6,Surface Average Face Conduction Heat Transfer Energy [J] !Hourly
453,1,ROOM_E1701F16..FACE0,Surface Average Face Conduction Heat Transfer Energy [J] !Hourly
454,1,ROOM_E1701F16..FACE7,Surface Average Face Conduction Heat Transfer Energy [J] !Hourly
455,1,ROOM_093AC67C,Zone Infiltration Total Heat Loss Energy [J] !Hourly
456,1,ROOM_093AC67C,Zone Infiltration Total Heat Gain Energy [J] !Hourly
457,1,ROOM_1FCE56F7,Zone Infiltration Total Heat Loss Energy [J] !Hourly
458,1,ROOM_1FCE56F7,Zone Infiltration Total Heat Gain Energy [J] !Hourly
459,1,ROOM_3885B4DD,Zone Infiltration Total Heat Loss Energy [J] !Hourly
460,1,ROOM_3885B4DD,Zone Infiltration Total Heat Gain Energy [J] !Hourly
461,1,ROOM_559049DE,Zone Infiltration Total Heat Loss Energy [J] !Hourly
462,1,ROOM_559049DE,Zone Infiltration Total Heat Gain Energy [J] !Hourly
463,1,ROOM_7D709F92,Zone Infiltration Total Heat Loss Energy [J] !Hourly
464,1,ROOM_7D709F92,Zone Infiltration Total Heat Gain Energy [J] !Hourly
465,1,ROOM_AAB59669,Zone Infiltration Total Heat Loss Energy [J] !Hourly
466,1,ROOM_AAB59669,Zone Infiltration Total Heat Gain Energy [J] !Hourly
467,1,ROOM_E1701F16,Zone Infiltration Total Heat Loss Energy [J] !Hourly
468,1,ROOM_E1701F16,Zone Infiltration Total Heat Gain Energy [J] !Hourly
954,1,ROOM_093AC67C IDEAL LOADS AIR SYSTEM,Zone Ideal Loads Supply Air Total Heating Energy [J] !Hourly
1003,1,ROOM_093AC67C IDEAL LOADS AIR SYSTEM,Zone Ideal Loads Supply Air Total Cooling Energy [J] !Hourly
1052,1,ROOM_093AC67C IDEAL LOADS AIR SYSTEM,Zone Ideal Loads Zone Total Heating Energy [J] !Hourly
1053,1,ROOM_093AC67C IDEAL LOADS AIR SYSTEM,Zone Ideal Loads Zone Total Cooling Energy [J] !Hourly
1054,1,ROOM_1FCE56F7 IDEAL LOADS AIR SYSTEM,Zone Ideal Loads Supply Air Total Heating Energy [J] !Hourly
1055,1,ROOM_1FCE56F7 IDEAL LOADS AIR SYSTEM,Zone Ideal Loads Supply Air Total Cooling Energy [J] !Hourly
1056,1,ROOM_1FCE56F7 IDEAL LOADS AIR SYSTEM,Zone Ideal Loads Zone Total Heating Energy [J] !Hourly
1057,1,ROOM_1FCE56F7 IDEAL LOADS AIR SYSTEM,Zone Ideal Loads Zone Total Cooling Energy [J] !Hourly
1058,1,ROOM_3885B4DD IDEAL LOADS AIR SYSTEM,Zone Ideal Loads Supply Air Total Heating Energy [J] !Hourly
1059,1,ROOM_3885B4DD IDEAL LOADS AIR SYSTEM,Zone Ideal Loads Supply Air Total Cooling Energy [J] !Hourly
1060,1,ROOM_3885B4DD IDEAL LOADS AIR SYSTEM,Zone Ideal Loads Zone Total Heating Energy [J] !Hourly
1061,1,ROOM_3885B4DD IDEAL LOADS AIR SYSTEM,Zone Ideal Loads Zone Total Cooling Energy [J] !Hourly
1062,1,ROOM_559049DE IDEAL LOADS AIR SYSTEM,Zone Ideal Loads Supply Air Total Heating Energy [J] !Hourly
1063,1,ROOM_559049DE IDEAL LOADS AIR SYSTEM,Zone Ideal Loads Supply Air Total Cooling Energy [J] !Hourly
1064,1,ROOM_559049DE IDEAL LOADS AIR SYSTEM,Zone Ideal Loads Zone Total Heating Energy [J] !Hourly
1065,1,ROOM_559049DE IDEAL LOADS AIR SYSTEM,Zone Ideal Loads Zone Total Cooling Energy [J] !Hourly
1066,1,ROOM_7D709F92 IDEAL LOADS AIR SYSTEM,Zone Ideal Loads Supply Air Total Heating Energy [J] !Hourly
1067,1,ROOM_7D709F92 IDEAL LOADS AIR SYSTEM,Zone Ideal Loads Supply Air Total Cooling Energy [J] !Hourly
1068,1,ROOM_7D709F92 IDEAL LOADS AIR SYSTEM,Zone Ideal Loads Zone Total Heating Energy [J] !Hourly
1069,1,ROOM_7D709F92 IDEAL LOADS AIR SYSTEM,Zone Ideal Loads Zone Total Cooling Energy [J] !Hourly
1070,1,ROOM_AAB59669 IDEAL LOADS AIR SYSTEM,Zone Ideal Loads Supply Air Total Heating Energy [J] !Hourly
1071,1,ROOM_AAB59669 IDEAL LOADS AIR SYSTEM,Zone Ideal Loads Supply Air Total Cooling Energy [J] !Hourly
1072,1,ROOM_AAB59669 IDEAL LOADS AIR SYSTEM,Zone Ideal Loads Zone Total Heating Energy [J] !Hourly
1073,1,ROOM_AAB59669 IDEAL LOADS AIR SYSTEM,Zone Ideal Loads Zone Total Cooling Energy [J] !Hourly
1074,1,ROOM_E1701F16 IDEAL LOADS AIR SYSTEM,Zone Ideal Loads Supply Air Total Heating Energy [J] !Hourly
1075,1,ROOM_E1701F16 IDEAL LOADS AIR SYSTEM,Zone Ideal Loads Supply Air Total Cooling Energy [J] !Hourly
1076,1,ROOM_E1701F16 IDEAL LOADS AIR SYSTEM,Zone Ideal Loads Zone Total Heating Energy [J] !Hourly
1077,1,ROOM_E1701F16 IDEAL LOADS AIR SYSTEM,Zone Ideal Loads Zone Total Cooling Energy [J] !Hourly
End of Data Dictionary
1,RUN PERIOD 1,  42.37, -71.02,  -5.00,   6.00
2,1, 1, 1, 0, 1, 0.00,60.00,Sunday
7,0.0
8,0.0
9,0.0
10,0.0
11,0.0
12,0.0
13,0.0
352,0.0
353,0.0
354,0.0
355,0.0
356,0.0
357,0.0
358,0.0
359,0.0
360,258506.9070292781
361,0.0
362,465110.8332021513
363,0.0
364,178917.0990601588
365,0.0
366,244998.83025113017
367,0.0
368,330990.2191816802
369,0.0
370,166224.4361281284
371,0.0
372,252908.63655722666
373,0.0
374,323723.5867609017
375,0.0
376,248940.43930160223
377,0.0
378,234391.62168126237
379,0.0
380,241320.4150302304
381,0.0
382,96053.40045910262
383,0.0
384,71892.67470727969
385,0.0
386,195289.18832291469
387,0.0
388,107494.51468395849
389,0.0
390,236706.7666891364
391,36155.122003685836
392,16831.836422514516
393,0.0
394,-176948.55833977695
395,0.0
396,-206099.21945336954
397,-12213.521032966446
398,92152.224144825
399,11150.982941603472
400,0.0
401,-327062.705916231
402,10345.26872862069
403,-17030.575530781487
404,-11054.352515788474
405,-31850.867468258366
406,137589.17927006793
407,23086.130171440127
408,0.0
409,-459182.7255119714
410,0.0
411,-230284.10653534614
412,-15842.225487178763
413,32982.69171964551
414,198133.97525038597
415,30289.6979290851
416,11804.511958165167
417,18186.28745739847
418,7382.044865222732
419,0.0
420,-73499.15896246289
421,0.0
422,-153429.09948426
423,33421.80264401942
424,3130.703155507471
425,0.0
426,-311948.70794869758
427,0.0
428,-472655.8817638719
429,40999.79694692147
430,0.0
431,-102419.70796798205
432,238398.414013991
433,33517.670162151684
434,0.0
435,-440570.7392781094
436,-22484.680877293114
437,-32854.06136379568
438,2469.3139942712284
439,185380.3575655096
440,30578.0945966908
441,0.0
442,-40912.39219430121
443,0.0
444,-173493.18813559449
445,0.0
446,-32423.07362844872
447,0.0
448,-115334.38898908458
449,0.0
450,-48455.92729663411
451,0.0
452,-171882.44479106106
453,45682.613375230154
454,1869.8340814659162
455,460006.94944204497
456,0.0
457,106568.01237961062
458,0.0
459,355719.62519954176
460,0.0
461,273427.0086935408
462,0.0
463,519009.5747249232
464,0.0
465,143102.7234994498
466,0.0
467,551622.0044365393
468,0.0
954,2003076.4387019517
1003,0.0
1052,1190162.6278874055
1053,0.0
1054,394693.2961981997
1055,0.0
1056,47103.877655426906
1057,15680.829499119774
1058,1104580.3341036428
1059,0.0
1060,588992.1825729446
1061,0.0
1062,1048120.6930529429
1063,0.0
1064,752241.6068282172
1065,0.0
1066,1512224.5202132685
1067,0.0
1068,978937.9417843998
1069,0.0
1070,504891.74807988
1071,0.0
1072,60437.972855929
1073,43356.402002979856
1074,1832548.9347310859
1075,0.0
1076,1612184.0924362245
1077,0.0
2,1, 1, 1, 0, 2, 0.00,60.00,Sunday
7,0.0
8,0.0
9,0.0
10,0.0
11,0.0
12,0.0
13,0.0
352,0.0
353,0.0
354,0.0
355,0.0
356,0.0
357,0.0
358,0.0
359,0.0
360,200548.72001196072
361,0.0
362,360657.3464196659
363,0.0
364,140222.293844488
365,0.0
366,191065.63869208157
367,0.0
368,258218.12202779996
369,0.0
370,128708.37742640003
371,0.0
372,196340.9326179207
373,0.0
374,251571.2579494413
375,0.0
376,193560.5125872188
377,0.0
378,183883.85273128146
379,0.0
380,189327.6924341952
381,0.0
382,74844.978974306
383,0.0
384,55131.67659781278
385,0.0
386,149592.60029021195
387,0.0
388,82261.8569008646
389,0.0
390,181318.2044904778
391,32824.83240563041
392,14746.702148822667
393,0.0
394,86194.26369253439
395,0.0
396,250642.90043166167
397,-11342.475883218043
398,64640.05496594913
399,4742.6569259762759
400,0.0
401,-136248.32810723136
402,8758.468618695535
403,-15867.83874995535
404,-10299.633320591964
405,-30856.562788028972
406,118179.53361371986
407,18408.40207646503
408,0.0
409,-189778.29869481215
410,0.0
411,94867.02609825065
412,-14773.215745166557
413,29781.076651156814
414,164135.96475146432
415,22002.717642987343
416,10585.072637844953
417,16307.592760422183
418,6719.688810561435
419,0.0
420,92165.11958418021
421,0.0
422,98844.47365815265
423,21464.096306094223
424,437.81947828747306
425,0.0
426,19053.791509599567
427,0.0
428,-194077.22492512229
429,37262.94849613604
430,0.0
431,122156.3015835766
432,195128.04953778778
433,23306.16359238989
434,0.0
435,-184076.48415754926
436,-22231.612414310806
437,-30656.18043355307
438,1087.7590639486548
439,159128.5294695191
440,24567.33585945165
441,0.0
442,60750.561074317295
443,0.0
444,-66470.34213416149
445,0.0
446,44504.64779799779
447,0.0
448,95074.74226469039
449,0.0
450,66461.82049302326
451,0.0
452,86067.58137787855
453,27915.01225335197
454,-1392.5076634597477
455,351732.65979497789
456,0.0
457,80169.584155403
458,0.0
459,273677.55445739839
460,0.0
461,212488.68156898686
462,0.0
463,404049.3048444157
464,0.0
465,107654.12648868328
466,0.0
467,439527.0733255193
468,0.0
954,1640315.3836541875
1003,0.0
1052,1010612.400728914
1053,0.0
1054,302830.19040630987
1055,0.0
1056,50162.718736164934
1057,23817.70030692279
1058,887419.725307163
1059,0.0
1060,485276.6211998953
1061,0.0
1062,868707.6688801837
1063,0.0
1064,635297.291055918
1065,0.0
1066,1231386.4903844812
1067,0.0
1068,809777.815445805
1069,0.0
1070,382214.9079297431
1071,0.0
1072,67321.68545428799
1073,56379.37034667995
1074,1547650.5087372063
1075,0.0
1076,1368236.492879267
1077,0.0
2,1, 1, 1, 0, 3, 0.00,60.00,Sunday
7,0.0
8,0.0
9,0.0
10,0.0
11,0.0
12,0.0
13,0.0
352,0.0
353,0.0
354,0.0
355,0.0
356,0.0
357,0.0
358,0.0
359,0.0
360,205618.58617112039
361,0.0
362,369809.4343955795
363,0.0
364,143044.77475568543
365,0.0
366,195028.69322888944
367,0.0
368,263530.97211850396
369,0.0
370,132081.38478795783
371,0.0
372,201556.61895549217
373,0.0
374,256705.40588986345
375,0.0
376,197518.12271140627
377,0.0
378,187863.80769498216
379,0.0
380,193047.40294914435
381,0.0
382,77130.7004110204
383,0.0
384,56706.765360888574
385,0.0
386,153797.05053876094
387,0.0
388,84582.79413055486
389,0.0
390,186485.24270375764
391,32680.01431066185
392,15488.305179150746
393,0.0
394,-16232.368591714308
395,0.0
396,60020.84020069194
397,-8215.647633476234
398,60373.52425635727
399,5328.869321835172
400,0.0
401,-189596.64104818804
402,9636.144601700671
403,-14284.206511640117
404,-9271.715679989433
405,-28371.753665483717
406,105072.70489769872
407,16062.84351513303
408,0.0
409,-263894.7740531542
410,0.0
411,-31198.429373647763
412,-10632.171975930569
413,32103.7111349397
414,148428.7674907932
415,19711.93821430909
416,10611.14774228544
417,16347.764632543367
418,9702.892163848217
419,0.0
420,23442.54425347158
421,0.0
422,-2402.592767819626
423,19711.348694771536
424,847.1008034579913
425,0.0
426,-99480.16396953618
427,0.0
428,-269872.06665500227
429,40725.90592736841
430,0.0
431,26919.44830688669
432,178352.91189942719
433,21180.472072826302
434,0.0
435,-255356.00158959337
436,-20020.31389846493
437,-27311.916864434
438,2324.012870941346
439,142011.62670816409
440,21747.25036392123
441,0.0
442,17976.90181935415
443,0.0
444,-95243.0218564644
445,0.0
446,13301.245037577179
447,0.0
448,12837.521488789747
449,0.0
450,20013.29125189865
451,0.0
452,-11890.731619163758
453,25185.10080961856
454,-395.74403846090118
455,390294.636255895
456,0.0
457,89348.97684482984
458,0.0
459,302937.265371954
460,0.0
461,234070.34675767006
462,0.0
463,444533.5202249596
464,0.0
465,119980.49478223913
466,0.0
467,474203.7502249121
468,0.0
954,1688399.7521993546
1003,0.0
1052,978760.4781676489
1053,0.0
1054,342769.36466312388
1055,0.0
1056,31569.654487343927
1057,1186.0155295660653
1058,950537.4701930401
1059,0.0
1060,498168.6883651767
1061,0.0
1062,888378.6683546179
1063,0.0
1064,626827.4823281464
1065,0.0
1066,1307218.3743715757
1067,0.0
1068,835314.9553411964
1069,0.0
1070,435989.1995181531
1071,0.0
1072,31145.794997888817
1073,14637.546660426686
1074,1574102.2090602136
1075,0.0
1076,1376999.5283846153
1077,0.0
2,1, 1, 1, 0, 4, 0.00,60.00,Sunday
7,0.0
8,0.0
9,0.0
10,0.0
11,0.0
12,0.0
13,0.0
352,0.0
353,0.0
354,0.0
355,0.0
356,0.0
357,0.0
358,0.0
359,0.0
360,208470.94733799049
361,0.0
362,374975.78879628147
363,0.0
364,144447.9963638567
365,0.0
366,197000.05395974054
367,0.0
368,266048.1371537746
369,0.0
370,133987.04290655873
371,0.0
372,204548.840031937
373,0.0
374,259104.25243979993
375,0.0
376,199368.08866642958
377,0.0
378,189535.15363330657
379,0.0
380,194889.23790236124
381,0.0
382,78334.32149622009
383,0.0
384,57540.10222829158
385,0.0
386,156031.86571379976
387,0.0
388,85820.94504415065
389,0.0
390,189289.23947044114
391,31149.59098870023
392,14236.39028326072
393,0.0
394,-68092.72194085292
395,0.0
396,-40856.58073304461
397,-7593.375447901153
398,57246.74146969554
399,5920.733566871615
400,0.0
401,-207649.60726292304
402,9745.542745979057
403,-13360.531568656468
404,-8672.168799657225
405,-27972.02587466489
406,94682.4669628397
407,14539.207240823309
408,0.0
409,-289203.00977383585
410,0.0
411,-94551.05290644903
412,-8797.609425479592
413,32027.52168683569
414,135633.2131963441
415,17893.201388117453
416,10212.323969198818
417,15733.328067278968
418,10147.113541870174
419,0.0
420,-13059.005030293742
421,0.0
422,-53669.650752220274
423,18621.91016741537
424,1267.0286404557019
425,0.0
426,-155385.53213393925
427,0.0
428,-295841.0460334878
429,41087.359452977005
430,0.0
431,-22975.944660086316
432,165302.0887594546
433,19522.456150662765
434,0.0
435,-279663.7785456164
436,-19614.56233310623
437,-25190.280199234803
438,2546.301026961363
439,128054.25556940466
440,19766.611533920906
441,0.0
442,-4446.878132274865
443,0.0
444,-105465.66575989047
445,0.0
446,-3461.9791172130437
447,0.0
448,-30158.937778737538
449,0.0
450,-4994.128375665105
451,0.0
452,-61403.08776409784
453,23313.620519458043
454,432.5864034907141
455,408282.06625565918
456,0.0
457,94073.07604780817
458,0.0
459,316047.3115769353
460,0.0
461,243104.62220787357
462,0.0
463,461273.86510682289
464,0.0
465,126324.15896708323
466,0.0
467,486704.2422833301
468,0.0
954,1733271.366304739
1003,0.0
1052,987218.6812798509
1053,0.0
1054,377670.38429497429
1055,0.0
1056,47054.66131103433
1057,0.0
1058,1007173.7014553718
1059,0.0
1060,532951.0932891184
1061,0.0
1062,908707.1184576872
1063,0.0
1064,635855.3588493083
1065,0.0
1066,1373813.5235780883
1067,0.0
1068,882015.6315626947
1069,0.0
1070,482851.88332396946
1071,0.0
1072,38891.13665348657
1073,0.0
1074,1605199.043188941
1075,0.0
1076,1402373.8672026238
1077,0.0
2,1, 1, 1, 0, 5, 0.00,60.00,Sunday
7,0.0
8,0.0
9,0.0
10,0.0
11,0.0
12,0.0
13,0.0
352,0.0
353,0.0
354,0.0
355,0.0
356,0.0
357,0.0
358,0.0
359,0.0
360,207931.74043518256
361,0.0
362,373991.72665744359
363,0.0
364,143662.9958809336
365,0.0
366,195966.9805263111
367,0.0
368,264522.51187157889
369,0.0
370,133675.46503146165
371,0.0
372,204122.14908914257
373,0.0
374,257542.09313712223
375,0.0
376,198189.7444386019
377,0.0
378,188158.0110421492
379,0.0
380,193803.41156738427
381,0.0
382,78089.70179308544
383,0.0
384,57383.195288478586
385,0.0
386,155618.58003459229
387,0.0
388,85597.65220616835
389,0.0
390,188840.86637227023
391,29165.818783178096
392,12547.216417501755
393,0.0
394,-85053.81217990263
395,0.0
396,-79132.8218502673
397,-7644.990121969766
398,52942.91662241999
399,5879.288676620422
400,0.0
401,-203885.0056610809
402,9376.99241307365
403,-12727.49378834802
404,-8261.271189843992
405,-28559.185093260763
406,85594.31986303148
407,13246.848373520697
408,0.0
409,-283880.21537581438
410,0.0
411,-114814.89325905022
412,-7741.027885034544
413,30965.85022380277
414,124428.42712797084
415,16008.515043344842
416,9659.234918388738
417,14881.227065287583
418,9845.189507951407
419,0.0
420,-26952.705961868312
421,0.0
422,-70751.18064922127
423,17058.464772857922
424,1386.8568616029439
425,0.0
426,-169371.82783189149
427,0.0
428,-290359.7949088183
429,40151.4872459077
430,0.0
431,-40908.47667891941
432,150965.48723362425
433,17555.49339650446
434,0.0
435,-274633.3576151776
436,-19486.13666530698
437,-23781.67163188737
438,2264.250459335265
439,115782.2060075435
440,18044.93194382933
441,0.0
442,-12249.457706565843
443,0.0
444,-103728.53947953266
445,0.0
446,-9831.711944786965
447,0.0
448,-45166.204672132706
449,0.0
450,-14580.903089020469
451,0.0
452,-77173.38001211992
453,20734.9479266911
454,737.2765770017251
455,415946.98883242989
456,0.0
457,96311.4495473347
458,0.0
459,321401.67591440505
460,0.0
461,246545.32721388716
462,0.0
463,467569.297703866
464,0.0
465,129329.91498797179
466,0.0
467,490700.96361214606
468,0.0
954,1750899.5429445834
1003,0.0
1052,991583.6453662642
1053,3469.409858645531
1054,402166.4563859256
1055,0.0
1056,63023.247143179775
1057,635.7782898760584
1058,1039706.5496311333
1059,0.0
1060,558406.8320485076
1061,2630.282971489436
1062,916196.7060048168
1063,0.0
1064,640511.8583670142
1065,1931.8404508451409
1066,1415779.453271355
1067,0.0
1068,919235.2480864596
1069,3571.4041137330866
1070,513593.92286455436
1071,0.0
1072,58181.66163104046
1073,853.1957851353361
1074,1615720.2661136944
1075,0.0
1076,1412429.718194444
1077,1772.7364784108432
2,1, 1, 1, 0, 6, 0.00,60.00,Sunday
7,0.0
8,0.0
9,0.0
10,0.0
11,0.0
12,0.0
13,0.0
352,0.0
353,0.0
354,0.0
355,0.0
356,0.0
357,0.0
358,0.0
359,0.0
360,208417.41959251557
361,0.0
362,374857.0123987751
363,0.0
364,143434.1077965409
365,0.0
366,195677.42258806123
367,0.0
368,264395.6347109777
369,0.0
370,134012.93156499419
371,0.0
372,204524.5094907605
373,0.0
374,256994.0946910656
375,0.0
376,197788.7266084114
377,0.0
378,188292.89423293327
379,0.0
380,193465.17628173016
381,0.0
382,78361.94748366498
383,0.0
384,57524.22378210957
385,0.0
386,155952.67424457539
387,0.0
388,85774.87115163905
389,0.0
390,189120.11138122867
391,27378.557809908572
392,11060.530612391349
393,0.0
394,-90729.8562317727
395,0.0
396,-92636.38617715756
397,-7647.090974520277
398,48817.42812825942
399,5653.600758653093
400,0.0
401,-200606.59138499088
402,9019.400513896264
403,-12167.821868776151
404,-7897.994524240219
405,-29066.59234223538
406,77616.24668632113
407,12136.411703568105
408,0.0
409,-279138.0382292808
410,0.0
411,-121639.93475201253
412,-6748.115696712809
413,29826.091465094025
414,114528.14051871245
415,14322.10427876345
416,9153.047274082397
417,14101.3833886186
418,9600.437837613901
419,0.0
420,-31818.758261354735
421,0.0
422,-78873.61281637784
423,15565.813441234484
424,1400.707023677915
425,0.0
426,-174640.70368526694
427,0.0
428,-285442.4261969974
429,39299.28389817107
430,0.0
431,-50076.32113705507
432,137196.3040788552
433,15690.239050123328
434,0.0
435,-270239.22723544706
436,-19389.984200395098
437,-22559.18299244096
438,1977.9813931298116
439,105071.75404195884
440,16551.597365949085
441,0.0
442,-17399.945411218683
443,0.0
444,-101965.80184151628
445,0.0
446,-12143.523282687203
447,0.0
448,-50572.84042867268
449,0.0
450,-17828.80916210776
451,0.0
452,-83999.93288461952
453,18324.4840444378
454,851.039088585487
455,417130.04739276916
456,0.0
457,96920.98743861911
458,0.0
459,321943.8724556239
460,0.0
461,246555.3519596541
462,0.0
463,467458.1342099508
464,0.0
465,130148.42112456137
466,0.0
467,489348.63158906946
468,0.0
954,1767254.2609833207
1003,0.0
1052,1006844.372229768
1053,5140.116923949416
1054,423577.65518090067
1055,0.0
1056,82865.75184906341
1057,1618.3956765460656
1058,1068470.328809396
1059,0.0
1060,586822.8128182304
1061,3395.950393939529