Program Version,EnergyPlus, Version 9.3.0-baff08990c, YMD=2021.04.24 20:47
1,5,Environment Title[],Latitude[deg],Longitude[deg],Time Zone[],Elevation[m]
2,8,Day of Simulation[],Month[],Day of Month[],DST Indicator[1=yes 0=no],Hour[],StartMinute[],EndMinute[],DayType
3,5,Cumulative Day of Simulation[],Month[],Day of Month[],DST Indicator[1=yes 0=no],DayType  ! When Daily Report Variables Requested
4,2,Cumulative Days of Simulation[],Month[]  ! When Monthly Report Variables Requested
5,1,Cumulative Days of Simulation[] ! When Run Period Report Variables Requested
6,1,Calendar Year of Simulation[] ! When Annual Report Variables Requested
7,1,ROOM_07C9946F,Zone People Total Heating Energy [J] !Hourly
8,1,ROOM_2993877B,Zone People Total Heating Energy [J] !Hourly
9,1,ROOM_370F75B5,Zone People Total Heating Energy [J] !Hourly
10,1,ROOM_3AFCC8C4,Zone People Total Heating Energy [J] !Hourly
11,1,ROOM_42CE16A9,Zone People Total Heating Energy [J] !Hourly
12,1,ROOM_62D0B3DB,Zone People Total Heating Energy [J] !Hourly
13,1,ROOM_72393597,Zone People Total Heating Energy [J] !Hourly
14,1,ROOM_7D1649B3,Zone People Total Heating Energy [J] !Hourly
15,1,ROOM_902207CD,Zone People Total Heating Energy [J] !Hourly
16,1,ROOM_C7E3EB28,Zone People Total Heating Energy [J] !Hourly
17,1,ROOM_D81A4DA9,Zone People Total Heating Energy [J] !Hourly
508,1,ROOM_07C9946F,Zone Windows Total Transmitted Solar Radiation Energy [J] !Hourly
509,1,ROOM_2993877B,Zone Windows Total Transmitted Solar Radiation Energy [J] !Hourly
510,1,ROOM_370F75B5,Zone Windows Total Transmitted Solar Radiation Energy [J] !Hourly
511,1,ROOM_3AFCC8C4,Zone Windows Total Transmitted Solar Radiation Energy [J] !Hourly
512,1,ROOM_42CE16A9,Zone Windows Total Transmitted Solar Radiation Energy [J] !Hourly
513,1,ROOM_62D0B3DB,Zone Windows Total Transmitted Solar Radiation Energy [J] !Hourly
514,1,ROOM_72393597,Zone Windows Total Transmitted Solar Radiation Energy [J] !Hourly
515,1,ROOM_7D1649B3,Zone Windows Total Transmitted Solar Radiation Energy [J] !Hourly
516,1,ROOM_902207CD,Zone Windows Total Transmitted Solar Radiation Energy [J] !Hourly
517,1,ROOM_C7E3EB28,Zone Windows Total Transmitted Solar Radiation Energy [J] !Hourly
518,1,ROOM_D81A4DA9,Zone Windows Total Transmitted Solar Radiation Energy [J] !Hourly
519,1,ROOM_07C9946F..FACE3_GLZ1,Surface Window Heat Gain Energy [J] !Hourly
520,1,ROOM_07C9946F..FACE3_GLZ1,Surface Window Heat Loss Energy [J] !Hourly
521,1,ROOM_07C9946F..FACE5_GLZ1,Surface Window Heat Gain Energy [J] !Hourly
522,1,ROOM_07C9946F..FACE5_GLZ1,Surface Window Heat Loss Energy [J] !Hourly
523,1,ROOM_2993877B..FACE1_GLZ1,Surface Window Heat Gain Energy [J] !Hourly
524,1,ROOM_2993877B..FACE1_GLZ1,Surface Window Heat Loss Energy [J] !Hourly
525,1,ROOM_2993877B..FACE3_GLZ1,Surface Window Heat Gain Energy [J] !Hourly
526,1,ROOM_2993877B..FACE3_GLZ1,Surface Window Heat Loss Energy [J] !Hourly
527,1,ROOM_2993877B..FACE4_GLZ1,Surface Window Heat Gain Energy [J] !Hourly
528,1,ROOM_2993877B..FACE4_GLZ1,Surface Window Heat Loss Energy [J] !Hourly
529,1,ROOM_370F75B5..FACE1_GLZ1,Surface Window Heat Gain Energy [J] !Hourly
530,1,ROOM_370F75B5..FACE1_GLZ1,Surface Window Heat Loss Energy [J] !Hourly
531,1,ROOM_370F75B5..FACE2_GLZ1,Surface Window Heat Gain Energy [J] !Hourly
532,1,ROOM_370F75B5..FACE2_GLZ1,Surface Window Heat Loss Energy [J] !Hourly
533,1,ROOM_370F75B5..FACE3_GLZ1,Surface Window Heat Gain Energy [J] !Hourly
534,1,ROOM_370F75B5..FACE3_GLZ1,Surface Window Heat Loss Energy [J] !Hourly
535,1,ROOM_3AFCC8C4..FACE1_GLZ1,Surface Window Heat Gain Energy [J] !Hourly
536,1,ROOM_3AFCC8C4..FACE1_GLZ1,Surface Window Heat Loss Energy [J] !Hourly
537,1,ROOM_3AFCC8C4..FACE5_GLZ1,Surface Window Heat Gain Energy [J] !Hourly
538,1,ROOM_3AFCC8C4..FACE5_GLZ1,Surface Window Heat Loss Energy [J] !Hourly
539,1,ROOM_42CE16A9..FACE1_GLZ1,Surface Window Heat Gain Energy [J] !Hourly
540,1,ROOM_42CE16A9..FACE1_GLZ1,Surface Window Heat Loss Energy [J] !Hourly
541,1,ROOM_42CE16A9..FACE4_GLZ1,Surface Window Heat Gain Energy [J] !Hourly
542,1,ROOM_42CE16A9..FACE4_GLZ1,Surface Window Heat Loss Energy [J] !Hourly
543,1,ROOM_62D0B3DB..FACE1_GLZ1,Surface Window Heat Gain Energy [J] !Hourly
544,1,ROOM_62D0B3DB..FACE1_GLZ1,Surface Window Heat Loss Energy [J] !Hourly
545,1,ROOM_62D0B3DB..FACE2_GLZ1,Surface Window Heat Gain Energy [J] !Hourly
546,1,ROOM_62D0B3DB..FACE2_GLZ1,Surface Window Heat Loss Energy [J] !Hourly
547,1,ROOM_62D0B3DB..FACE3_GLZ1,Surface Window Heat Gain Energy [J] !Hourly
548,1,ROOM_62D0B3DB..FACE3_GLZ1,Surface Window Heat Loss Energy [J] !Hourly
549,1,ROOM_72393597..FACE3_GLZ1,Surface Window Heat Gain Energy [J] !Hourly
550,1,ROOM_72393597..FACE3_GLZ1,Surface Window Heat Loss Energy [J] !Hourly
551,1,ROOM_72393597..FACE5_GLZ1,Surface Window Heat Gain Energy [J] !Hourly
552,1,ROOM_72393597..FACE5_GLZ1,Surface Window Heat Loss Energy [J] !Hourly
553,1,ROOM_7D1649B3..FACE1_GLZ1,Surface Window Heat Gain Energy [J] !Hourly
554,1,ROOM_7D1649B3..FACE1_GLZ1,Surface Window Heat Loss Energy [J] !Hourly
555,1,ROOM_7D1649B3..FACE2_GLZ1,Surface Window Heat Gain Energy [J] !Hourly
556,1,ROOM_7D1649B3..FACE2_GLZ1,Surface Window Heat Loss Energy [J] !Hourly
557,1,ROOM_7D1649B3..FACE3_GLZ1,Surface Window Heat Gain Energy [J] !Hourly
558,1,ROOM_7D1649B3..FACE3_GLZ1,Surface Window Heat Loss Energy [J] !Hourly
559,1,ROOM_7D1649B3..FACE4_GLZ1,Surface Window Heat Gain Energy [J] !Hourly
560,1,ROOM_7D1649B3..FACE4_GLZ1,Surface Window Heat Loss Energy [J] !Hourly
561,1,ROOM_7D1649B3..FACE5_GLZ1,Surface Window Heat Gain Energy [J] !Hourly
562,1,ROOM_7D1649B3..FACE5_GLZ1,Surface Window Heat Loss Energy [J] !Hourly
563,1,ROOM_902207CD..FACE1_GLZ1,Surface Window Heat Gain Energy [J] !Hourly
564,1,ROOM_902207CD..FACE1_GLZ1,Surface Window Heat Loss Energy [J] !Hourly
565,1,ROOM_902207CD..FACE2_GLZ1,Surface Window Heat Gain Energy [J] !Hourly
566,1,ROOM_902207CD..FACE2_GLZ1,Surface Window Heat Loss Energy [J] !Hourly
567,1,ROOM_902207CD..FACE3_GLZ1,Surface Window Heat Gain Energy [J] !Hourly
568,1,ROOM_902207CD..FACE3_GLZ1,Surface Window Heat Loss Energy [J] !Hourly
569,1,ROOM_902207CD..FACE4_GLZ1,Surface Window Heat Gain Energy [J] !Hourly
570,1,ROOM_902207CD..FACE4_GLZ1,Surface Window Heat Loss Energy [J] !Hourly
571,1,ROOM_C7E3EB28..FACE3_GLZ1,Surface Window Heat Gain Energy [J] !Hourly
572,1,ROOM_C7E3EB28..FACE3_GLZ1,Surface Window Heat Loss Energy [J] !Hourly
573,1,ROOM_C7E3EB28..FACE4_GLZ1,Surface Window Heat Gain Energy [J] !Hourly
574,1,ROOM_C7E3EB28..FACE4_GLZ1,Surface Window Heat Loss Energy [J] !Hourly
575,1,ROOM_D81A4DA9..FACE1_GLZ1,Surface Window Heat Gain Energy [J] !Hourly
576,1,ROOM_D81A4DA9..FACE1_GLZ1,Surface Window Heat Loss Energy [J] !Hourly
577,1,ROOM_D81A4DA9..FACE3_GLZ1,Surface Window Heat Gain Energy [J] !Hourly
578,1,ROOM_D81A4DA9..FACE3_GLZ1,Surface Window Heat Loss Energy [J] !Hourly
579,1,ROOM_D81A4DA9..FACE4_GLZ1,Surface Window Heat Gain Energy [J] !Hourly
580,1,ROOM_D81A4DA9..FACE4_GLZ1,Surface Window Heat Loss Energy [J] !Hourly
581,1,ROOM_07C9946F..FACE1,Surface Average Face Conduction Heat Transfer Energy [J] !Hourly
582,1,ROOM_07C9946F..FACE2,Surface Average Face Conduction Heat Transfer Energy [J] !Hourly
583,1,ROOM_07C9946F..FACE3,Surface Outside Face Solar Radiation Heat Gain Energy [J] !Hourly
584,1,ROOM_07C9946F..FACE3,Surface Average Face Conduction Heat Transfer Energy [J] !Hourly
585,1,ROOM_07C9946F..FACE4,Surface Average Face Conduction Heat Transfer Energy [J] !Hourly
586,1,ROOM_07C9946F..FACE5,Surface Outside Face Solar Radiation Heat Gain Energy [J] !Hourly
587,1,ROOM_07C9946F..FACE5,Surface Average Face Conduction Heat Transfer Energy [J] !Hourly
588,1,ROOM_07C9946F..FACE6,Surface Average Face Conduction Heat Transfer Energy [J] !Hourly
589,1,ROOM_07C9946F..FACE0,Surface Average Face Conduction Heat Transfer Energy [J] !Hourly
590,1,ROOM_07C9946F..FACE7,Surface Average Face Conduction Heat Transfer Energy [J] !Hourly
591,1,ROOM_2993877B..FACE1,Surface Outside Face Solar Radiation Heat Gain Energy [J] !Hourly
592,1,ROOM_2993877B..FACE1,Surface Average Face Conduction Heat Transfer Energy [J] !Hourly
593,1,ROOM_2993877B..FACE2,Surface Average Face Conduction Heat Transfer Energy [J] !Hourly
594,1,ROOM_2993877B..FACE3,Surface Outside Face Solar Radiation Heat Gain Energy [J] !Hourly
595,1,ROOM_2993877B..FACE3,Surface Average Face Conduction Heat Transfer Energy [J] !Hourly
596,1,ROOM_2993877B..FACE4,Surface Outside Face Solar Radiation Heat Gain Energy [J] !Hourly
597,1,ROOM_2993877B..FACE4,Surface Average Face Conduction Heat Transfer Energy [J] !Hourly
598,1,ROOM_2993877B..FACE5,Surface Average Face Conduction Heat Transfer Energy [J] !Hourly
599,1,ROOM_2993877B..FACE0,Surface Average Face Conduction Heat Transfer Energy [J] !Hourly
600,1,ROOM_2993877B..FACE6,Surface Average Face Conduction Heat Transfer Energy [J] !Hourly
601,1,ROOM_370F75B5..FACE1,Surface Outside Face Solar Radiation Heat Gain Energy [J] !Hourly
602,1,ROOM_370F75B5..FACE1,Surface Average Face Conduction Heat Transfer Energy [J] !Hourly
603,1,ROOM_370F75B5..FACE2,Surface Outside Face Solar Radiation Heat Gain Energy [J] !Hourly
604,1,ROOM_370F75B5..FACE2,Surface Average Face Conduction Heat Transfer Energy [J] !Hourly
605,1,ROOM_370F75B5..FACE3,Surface Outside Face Solar Radiation Heat Gain Energy [J] !Hourly
606,1,ROOM_370F75B5..FACE3,Surface Average Face Conduction Heat Transfer Energy [J] !Hourly
607,1,ROOM_370F75B5..FACE4,Surface Average Face Conduction Heat Transfer Energy [J] !Hourly
608,1,ROOM_370F75B5..FACE0,Surface Average Face Conduction Heat Transfer Energy [J] !Hourly
609,1,ROOM_370F75B5..FACE5,Surface Average Face Conduction Heat Transfer Energy [J] !Hourly
610,1,ROOM_3AFCC8C4..FACE1,Surface Outside Face Solar Radiation Heat Gain Energy [J] !Hourly
611,1,ROOM_3AFCC8C4..FACE1,Surface Average Face Conduction Heat Transfer Energy [J] !Hourly
612,1,ROOM_3AFCC8C4..FACE2,Surface Average Face Conduction Heat Transfer Energy [J] !Hourly
613,1,ROOM_3AFCC8C4..FACE3,Surface Average Face Conduction Heat Transfer Energy [J] !Hourly
614,1,ROOM_3AFCC8C4..FACE4,Surface Average Face Conduction Heat Transfer Energy [J] !Hourly
615,1,ROOM_3AFCC8C4..FACE5,Surface Outside Face Solar Radiation Heat Gain Energy [J] !Hourly
616,1,ROOM_3AFCC8C4..FACE5,Surface Average Face Conduction Heat Transfer Energy [J] !Hourly
617,1,ROOM_3AFCC8C4..FACE0,Surface Average Face Conduction Heat Transfer Energy [J] !Hourly
618,1,ROOM_3AFCC8C4..FACE6,Surface Average Face Conduction Heat Transfer Energy [J] !Hourly
619,1,ROOM_42CE16A9..FACE1,Surface Outside Face Solar Radiation Heat Gain Energy [J] !Hourly
620,1,ROOM_42CE16A9..FACE1,Surface Average Face Conduction Heat Transfer Energy [J] !Hourly
621,1,ROOM_42CE16A9..FACE2,Surface Average Face Conduction Heat Transfer Energy [J] !Hourly
622,1,ROOM_42CE16A9..FACE3,Surface Average Face Conduction Heat Transfer Energy [J] !Hourly
623,1,ROOM_42CE16A9..FACE4,Surface Outside Face Solar Radiation Heat Gain Energy [J] !Hourly
624,1,ROOM_42CE16A9..FACE4,Surface Average Face Conduction Heat Transfer Energy [J] !Hourly
625,1,ROOM_42CE16A9..FACE5,Surface Average Face Conduction Heat Transfer Energy [J] !Hourly
626,1,ROOM_42CE16A9..FACE0,Surface Average Face Conduction Heat Transfer Energy [J] !Hourly
627,1,ROOM_42CE16A9..FACE6,Surface Average Face Conduction Heat Transfer Energy [J] !Hourly
628,1,ROOM_62D0B3DB..FACE1,Surface Outside Face Solar Radiation Heat Gain Energy [J] !Hourly
629,1,ROOM_62D0B3DB..FACE1,Surface Average Face Conduction Heat Transfer Energy [J] !Hourly
630,1,ROOM_62D0B3DB..FACE2,Surface Outside Face Solar Radiation Heat Gain Energy [J] !Hourly
631,1,ROOM_62D0B3DB..FACE2,Surface Average Face Conduction Heat Transfer Energy [J] !Hourly
632,1,ROOM_62D0B3DB..FACE3,Surface Outside Face Solar Radiation Heat Gain Energy [J] !Hourly
633,1,ROOM_62D0B3DB..FACE3,Surface Average Face Conduction Heat Transfer Energy [J] !Hourly
634,1,ROOM_62D0B3DB..FACE4,Surface Average Face Conduction Heat Transfer Energy [J] !Hourly
635,1,ROOM_62D0B3DB..FACE0,Surface Average Face Conduction Heat Transfer Energy [J] !Hourly
636,1,ROOM_62D0B3DB..FACE5,Surface Average Face Conduction Heat Transfer Energy [J] !Hourly
637,1,ROOM_72393597..FACE1,Surface Average Face Conduction Heat Transfer Energy [J] !Hourly
638,1,ROOM_72393597..FACE2,Surface Average Face Conduction Heat Transfer Energy [J] !Hourly
639,1,ROOM_72393597..FACE3,Surface Outside Face Solar Radiation Heat Gain Energy [J] !Hourly
640,1,ROOM_72393597..FACE3,Surface Average Face Conduction Heat Transfer Energy [J] !Hourly
641,1,ROOM_72393597..FACE4,Surface Average Face Conduction Heat Transfer Energy [J] !Hourly
642,1,ROOM_72393597..FACE5,Surface Outside Face Solar Radiation Heat Gain Energy [J] !Hourly
643,1,ROOM_72393597..FACE5,Surface Average Face Conduction Heat Transfer Energy [J] !Hourly
644,1,ROOM_72393597..FACE0,Surface Average Face Conduction Heat Transfer Energy [J] !Hourly
645,1,ROOM_72393597..FACE6,Surface Average Face Conduction Heat Transfer Energy [J] !Hourly
646,1,ROOM_7D1649B3..FACE1,Surface Outside Face Solar Radiation Heat Gain Energy [J] !Hourly
647,1,ROOM_7D1649B3..FACE1,Surface Average Face Conduction Heat Transfer Energy [J] !Hourly
648,1,ROOM_7D1649B3..FACE2,Surface Outside Face Solar Radiation Heat Gain Energy [J] !Hourly
649,1,ROOM_7D1649B3..FACE2,Surface Average Face Conduction Heat Transfer Energy [J] !Hourly
650,1,ROOM_7D1649B3..FACE3,Surface Outside Face Solar Radiation Heat Gain Energy [J] !Hourly
651,1,ROOM_7D1649B3..FACE3,Surface Average Face Conduction Heat Transfer Energy [J] !Hourly
652,1,ROOM_7D1649B3..FACE4,Surface Outside Face Solar Radiation Heat Gain Energy [J] !Hourly
653,1,ROOM_7D1649B3..FACE4,Surface Average Face Conduction Heat Transfer Energy [J] !Hourly
654,1,ROOM_7D1649B3..FACE5,Surface Outside Face Solar Radiation Heat Gain Energy [J] !Hourly
655,1,ROOM_7D1649B3..FACE5,Surface Average Face Conduction Heat Transfer Energy [J] !Hourly
656,1,ROOM_7D1649B3..FACE6,Surface Average Face Conduction Heat Transfer Energy [J] !Hourly
657,1,ROOM_7D1649B3..FACE0,Surface Average Face Conduction Heat Transfer Energy [J] !Hourly
658,1,ROOM_7D1649B3..FACE7,Surface Average Face Conduction Heat Transfer Energy [J] !Hourly
659,1,ROOM_902207CD..FACE1,Surface Outside Face Solar Radiation Heat Gain Energy [J] !Hourly
660,1,ROOM_902207CD..FACE1,Surface Average Face Conduction Heat Transfer Energy [J] !Hourly
661,1,ROOM_902207CD..FACE2,Surface Outside Face Solar Radiation Heat Gain Energy [J] !Hourly
662,1,ROOM_902207CD..FACE2,Surface Average Face Conduction Heat Transfer Energy [J] !Hourly
663,1,ROOM_902207CD..FACE3,Surface Outside Face Solar Radiation Heat Gain Energy [J] !Hourly
664,1,ROOM_902207CD..FACE3,Surface Average Face Conduction Heat Transfer Energy [J] !Hourly
665,1,ROOM_902207CD..FACE4,Surface Outside Face Solar Radiation Heat Gain Energy [J] !Hourly
666,1,ROOM_902207CD..FACE4,Surface Average Face Conduction Heat Transfer Energy [J] !Hourly
667,1,ROOM_902207CD..FACE0,Surface Average Face Conduction Heat Transfer Energy [J] !Hourly
668,1,ROOM_902207CD..FACE5,Surface Average Face Conduction Heat Transfer Energy [J] !Hourly
669,1,ROOM_C7E3EB28..FACE1,Surface Average Face Conduction Heat Transfer Energy [J] !Hourly
670,1,ROOM_C7E3EB28..FACE2,Surface Average Face Conduction Heat Transfer Energy [J] !Hourly
671,1,ROOM_C7E3EB28..FACE3,Surface Outside Face Solar Radiation Heat Gain Energy [J] !Hourly
672,1,ROOM_C7E3EB28..FACE3,Surface Average Face Conduction Heat Transfer Energy [J] !Hourly
673,1,ROOM_C7E3EB28..FACE4,Surface Outside Face Solar Radiation Heat Gain Energy [J] !Hourly
674,1,ROOM_C7E3EB28..FACE4,Surface Average Face Conduction Heat Transfer Energy [J] !Hourly
675,1,ROOM_C7E3EB28..FACE0,Surface Average Face Conduction Heat Transfer Energy [J] !Hourly
676,1,ROOM_C7E3EB28..FACE5,Surface Average Face Conduction Heat Transfer Energy [J] !Hourly
677,1,ROOM_D81A4DA9..FACE1,Surface Outside Face Solar Radiation Heat Gain Energy [J] !Hourly
678,1,ROOM_D81A4DA9..FACE1,Surface Average Face Conduction Heat Transfer Energy [J] !Hourly
679,1,ROOM_D81A4DA9..FACE2,Surface Average Face Conduction Heat Transfer Energy [J] !Hourly
680,1,ROOM_D81A4DA9..FACE3,Surface Outside Face Solar Radiation Heat Gain Energy [J] !Hourly
681,1,ROOM_D81A4DA9..FACE3,Surface Average Face Conduction Heat Transfer Energy [J] !Hourly
682,1,ROOM_D81A4DA9..FACE4,Surface Outside Face Solar Radiation Heat Gain Energy [J] !Hourly
683,1,ROOM_D81A4DA9..FACE4,Surface Average Face Conduction Heat Transfer Energy [J] !Hourly
684,1,ROOM_D81A4DA9..FACE5,Surface Average Face Conduction Heat Transfer Energy [J] !Hourly
685,1,ROOM_D81A4DA9..FACE0,Surface Average Face Conduction Heat Transfer Energy [J] !Hourly
686,1,ROOM_D81A4DA9..FACE6,Surface Average Face Conduction Heat Transfer Energy [J] !Hourly
687,1,ROOM_07C9946F,Zone Infiltration Total Heat Loss Energy [J] !Hourly
688,1,ROOM_07C9946F,Zone Infiltration Total Heat Gain Energy [J] !Hourly
689,1,ROOM_2993877B,Zone Infiltration Total Heat Loss Energy [J] !Hourly
690,1,ROOM_2993877B,Zone Infiltration Total Heat Gain Energy [J] !Hourly
691,1,ROOM_370F75B5,Zone Infiltration Total Heat Loss Energy [J] !Hourly
692,1,ROOM_370F75B5,Zone Infiltration Total Heat Gain Energy [J] !Hourly
693,1,ROOM_3AFCC8C4,Zone Infiltration Total Heat Loss Energy [J] !Hourly
694,1,ROOM_3AFCC8C4,Zone Infiltration Total Heat Gain Energy [J] !Hourly
695,1,ROOM_42CE16A9,Zone Infiltration Total Heat Loss Energy [J] !Hourly
696,1,ROOM_42CE16A9,Zone Infiltration Total Heat Gain Energy [J] !Hourly
697,1,ROOM_62D0B3DB,Zone Infiltration Total Heat Loss Energy [J] !Hourly
698,1,ROOM_62D0B3DB,Zone Infiltration Total Heat Gain Energy [J] !Hourly
699,1,ROOM_72393597,Zone Infiltration Total Heat Loss Energy [J] !Hourly
700,1,ROOM_72393597,Zone Infiltration Total Heat Gain Energy [J] !Hourly
701,1,ROOM_7D1649B3,Zone Infiltration Total Heat Loss Energy [J] !Hourly
702,1,ROOM_7D1649B3,Zone Infiltration Total Heat Gain Energy [J] !Hourly
703,1,ROOM_902207CD,Zone Infiltration Total Heat Loss Energy [J] !Hourly
704,1,ROOM_902207CD,Zone Infiltration Total Heat Gain Energy [J] !Hourly
705,1,ROOM_C7E3EB28,Zone Infiltration Total Heat Loss Energy [J] !Hourly
706,1,ROOM_C7E3EB28,Zone Infiltration Total Heat Gain Energy [J] !Hourly
707,1,ROOM_D81A4DA9,Zone Infiltration Total Heat Loss Energy [J] !Hourly
708,1,ROOM_D81A4DA9,Zone Infiltration Total Heat Gain Energy [J] !Hourly
1346,1,ROOM_07C9946F IDEAL LOADS AIR SYSTEM,Zone Ideal Loads Supply Air Total Heating Energy [J] !Hourly
1395,1,ROOM_07C9946F IDEAL LOADS AIR SYSTEM,Zone Ideal Loads Supply Air Total Cooling Energy [J] !Hourly
1444,1,ROOM_07C9946F IDEAL LOADS AIR SYSTEM,Zone Ideal Loads Zone Total Heating Energy [J] !Hourly
1445,1,ROOM_07C9946F IDEAL LOADS AIR SYSTEM,Zone Ideal Loads Zone Total Cooling Energy [J] !Hourly
1446,1,ROOM_2993877B IDEAL LOADS AIR SYSTEM,Zone Ideal Loads Supply Air Total Heating Energy [J] !Hourly
1447,1,ROOM_2993877B IDEAL LOADS AIR SYSTEM,Zone Ideal Loads Supply Air Total Cooling Energy [J] !Hourly
1448,1,ROOM_2993877B IDEAL LOADS AIR SYSTEM,Zone Ideal Loads Zone Total Heating Energy [J] !Hourly
1449,1,ROOM_2993877B IDEAL LOADS AIR SYSTEM,Zone Ideal Loads Zone Total Cooling Energy [J] !Hourly
1450,1,ROOM_370F75B5 IDEAL LOADS AIR SYSTEM,Zone Ideal Loads Supply Air Total Heating Energy [J] !Hourly
1451,1,ROOM_370F75B5 IDEAL LOADS AIR SYSTEM,Zone Ideal Loads Supply Air Total Cooling Energy [J] !Hourly
1452,1,ROOM_370F75B5 IDEAL LOADS AIR SYSTEM,Zone Ideal Loads Zone Total Heating Energy [J] !Hourly
1453,1,ROOM_370F75B5 IDEAL LOADS AIR SYSTEM,Zone Ideal Loads Zone Total Cooling Energy [J] !Hourly
1454,1,ROOM_3AFCC8C4 IDEAL LOADS AIR SYSTEM,Zone Ideal Loads Supply Air Total Heating Energy [J] !Hourly
1455,1,ROOM_3AFCC8C4 IDEAL LOADS AIR SYSTEM,Zone Ideal Loads Supply Air Total Cooling Energy [J] !Hourly
1456,1,ROOM_3AFCC8C4 IDEAL LOADS AIR SYSTEM,Zone Ideal Loads Zone Total Heating Energy [J] !Hourly
1457,1,ROOM_3AFCC8C4 IDEAL LOADS AIR SYSTEM,Zone Ideal Loads Zone Total Cooling Energy [J] !Hourly
1458,1,ROOM_42CE16A9 IDEAL LOADS AIR SYSTEM,Zone Ideal Loads Supply Air Total Heating Energy [J] !Hourly
1459,1,ROOM_42CE16A9 IDEAL LOADS AIR SYSTEM,Zone Ideal Loads Supply Air Total Cooling Energy [J] !Hourly
1460,1,ROOM_42CE16A9 IDEAL LOADS AIR SYSTEM,Zone Ideal Loads Zone Total Heating Energy [J] !Hourly
1461,1,ROOM_42CE16A9 IDEAL LOADS AIR SYSTEM,Zone Ideal Loads Zone Total Cooling Energy [J] !Hourly
1462,1,ROOM_62D0B3DB IDEAL LOADS AIR SYSTEM,Zone Ideal Loads Supply Air Total Heating Energy [J] !Hourly
1463,1,ROOM_62D0B3DB IDEAL LOADS AIR SYSTEM,Zone Ideal Loads Supply Air Total Cooling Energy [J] !Hourly
1464,1,ROOM_62D0B3DB IDEAL LOADS AIR SYSTEM,Zone Ideal Loads Zone Total Heating Energy [J] !Hourly
1465,1,ROOM_62D0B3DB IDEAL LOADS AIR SYSTEM,Zone Ideal Loads Zone Total Cooling Energy [J] !Hourly
1466,1,ROOM_72393597 IDEAL LOADS AIR SYSTEM,Zone Ideal Loads Supply Air Total Heating Energy [J] !Hourly
1467,1,ROOM_72393597 IDEAL LOADS AIR SYSTEM,Zone Ideal Loads Supply Air Total Cooling Energy [J] !Hourly
1468,1,ROOM_72393597 IDEAL LOADS AIR SYSTEM,Zone Ideal Loads Zone Total Heating Energy [J] !Hourly
1469,1,ROOM_72393597 IDEAL LOADS AIR SYSTEM,Zone Ideal Loads Zone Total Cooling Energy [J] !Hourly
1470,1,ROOM_7D1649B3 IDEAL LOADS AIR SYSTEM,Zone Ideal Loads Supply Air Total Heating Energy [J] !Hourly
1471,1,ROOM_7D1649B3 IDEAL LOADS AIR SYSTEM,Zone Ideal Loads Supply Air Total Cooling Energy [J] !Hourly
1472,1,ROOM_7D1649B3 IDEAL LOADS AIR SYSTEM,Zone Ideal Loads Zone Total Heating Energy [J] !Hourly
1473,1,ROOM_7D1649B3 IDEAL LOADS AIR SYSTEM,Zone Ideal Loads Zone Total Cooling Energy [J] !Hourly
1474,1,ROOM_902207CD IDEAL LOADS AIR SYSTEM,Zone Ideal Loads Supply Air Total Heating Energy [J] !Hourly
1475,1,ROOM_902207CD IDEAL LOADS AIR SYSTEM,Zone Ideal Loads Supply Air Total Cooling Energy [J] !Hourly
1476,1,ROOM_902207CD IDEAL LOADS AIR SYSTEM,Zone Ideal Loads Zone Total Heating Energy [J] !Hourly
1477,1,ROOM_902207CD IDEAL LOADS AIR SYSTEM,Zone Ideal Loads Zone Total Cooling Energy [J] !Hourly
1478,1,ROOM_C7E3EB28 IDEAL LOADS AIR SYSTEM,Zone Ideal Loads Supply Air Total Heating Energy [J] !Hourly
1479,1,ROOM_C7E3EB28 IDEAL LOADS AIR SYSTEM,Zone Ideal Loads Supply Air Total Cooling Energy [J] !Hourly
1480,1,ROOM_C7E3EB28 IDEAL LOADS AIR SYSTEM,Zone Ideal Loads Zone Total Heating Energy [J] !Hourly
1481,1,ROOM_C7E3EB28 IDEAL LOADS AIR SYSTEM,Zone Ideal Loads Zone Total Cooling Energy [J] !Hourly
1482,1,ROOM_D81A4DA9 IDEAL LOADS AIR SYSTEM,Zone Ideal Loads Supply Air Total Heating Energy [J] !Hourly
1483,1,ROOM_D81A4DA9 IDEAL LOADS AIR SYSTEM,Zone Ideal Loads Supply Air Total Cooling Energy [J] !Hourly
1484,1,ROOM_D81A4DA9 IDEAL LOADS AIR SYSTEM,Zone Ideal Loads Zone Total Heating Energy [J] !Hourly
1485,1,ROOM_D81A4DA9 IDEAL LOADS AIR SYSTEM,Zone Ideal Loads Zone Total Cooling Energy [J] !Hourly
End of Data Dictionary
1,RUN PERIOD 1,  42.37, -71.02,  -5.00,   6.00
2,1, 1, 1, 0, 1, 0.00,60.00,Sunday
7,0.0
8,0.0
9,0.0
10,0.0
11,0.0
12,0.0
13,0.0
14,0.0
15,0.0
16,0.0
17,0.0
508,0.0
509,0.0
510,0.0
511,0.0
512,0.0
513,0.0
514,0.0
515,0.0
516,0.0
517,0.0
518,0.0
519,0.0
520,1568.2955611796197
521,0.0
522,146239.70414158095
523,0.0
524,153099.58015644723
525,0.0
526,63810.31723709774
527,0.0
528,77140.36274887895
529,0.0
530,120297.97396986297
531,0.0
532,92171.15881814939
533,0.0
534,125736.40510194433
535,0.0
536,399784.8185025389
537,0.0
538,186930.06592067577
539,0.0
540,196419.45234133217
541,0.0
542,217722.46701248064
543,0.0
544,160483.75183949423
545,0.0
546,175623.14814052837
547,0.0
548,146387.82777921204
549,0.0
550,226767.49344285549
551,0.0
552,206325.48466946849
553,0.0
554,414346.5141372551
555,0.0
556,349768.46001954397
557,0.0
558,221436.18508275765
559,0.0
560,171719.74236177637
561,0.0
562,171032.54666220398
563,0.0
564,135911.28918573788
565,0.0
566,242759.65964023034
567,0.0
568,150055.52098656627
569,0.0
570,223574.5595076243
571,0.0
572,239464.10332429439
573,0.0
574,289762.9891564257
575,0.0
576,345660.40968872405
577,0.0
578,23995.79185939602
579,0.0
580,340275.7089732746
581,11391.383675486635
582,343.58691508816409
583,0.0
584,-703.7657327276477
585,-21572.07726329261
586,0.0
587,-63390.63161298816
588,-9785.504025326278
589,24006.37189671885
590,4817.2438631262
591,0.0
592,-289410.19229392017
593,-12442.184657742255
594,0.0
595,-27484.6405888557
596,0.0
597,-33893.79629360519
598,3948.369447986034
599,95053.5212609531
600,13559.008138875357
601,0.0
602,-137267.56893035369
603,0.0
604,-45298.8813347117
605,0.0
606,-54982.00886128802
607,9166.801687836869
608,25400.285366449105
609,1013.756556305056
610,0.0
611,-740267.6384007186
612,-5668.639661983745
613,-6930.62352917516
614,-20107.19239919927
615,0.0
616,-179422.14655765196
617,299810.49287704759
618,45724.14025138889
619,0.0
620,-80817.17422290769
621,-1907.7800196423596
622,-13210.944627553454
623,0.0
624,-94539.04385139611
625,19251.636890403657
626,21247.659936352386
627,1959.4882880706319
628,0.0
629,-311820.7924709333
630,0.0
631,-125467.08215335166
632,0.0
633,-63257.81051296127
634,13702.679958285258
635,104798.63990487876
636,11355.140338474685
637,86.77357171026681
638,13798.936297561333
639,0.0
640,-425484.3482667329
641,-560.1474531734981
642,0.0
643,-83050.95860493081
644,148827.1491726729
645,23004.43962979607
646,0.0
647,-625705.3658067974
648,0.0
649,-185569.24468989008
650,0.0
651,-100563.0045272925
652,0.0
653,-87725.82048036435
654,0.0
655,-73537.83393202092
656,-510.30965250686276
657,292208.2411003255
658,29291.41940065993
659,0.0
660,-88545.94446264413
661,0.0
662,-170203.64896625203
663,0.0
664,-66723.6436227808
665,0.0
666,-123540.0726812087
667,38286.75136800029
668,925.3757379382635
669,26307.09967221797
670,9703.750314432069
671,0.0
672,-107862.02880367765
673,0.0
674,-275948.0653070071
675,99364.03066312897
676,12597.035208232124
677,0.0
678,-654148.4763294039
679,469.9661709609354
680,0.0
681,-11396.319036907133
682,0.0
683,-171223.37493937085
684,6294.641556969519
685,236821.8039684223
686,34912.63247808744
687,90901.91939795905
688,0.0
689,192872.9656675441
690,0.0
691,244153.44654088497
692,0.0
693,356238.41893432257
694,0.0
695,281449.57091373988
696,0.0
697,325438.2467818378
698,0.0
699,282504.4031449233
700,0.0
701,894290.4135080583
702,0.0
703,549529.2222756335
704,0.0
705,335195.5604296698
706,0.0
707,450739.8381703481
708,0.0
1346,525614.7616311408
1395,0.0
1444,250581.50557278313
1445,0.0
1446,561464.3023260937
1447,0.0
1448,379299.7678378428
1449,0.0
1450,808247.7592107388
1451,0.0
1452,709385.7863240126
1453,0.0
1454,869187.8950410622
1455,0.0
1456,410495.7563199074
1457,0.0
1458,1236064.3233617708
1459,0.0
1460,843911.4898687907
1461,0.0
1462,950957.9760103104
1463,0.0
1464,752650.2905798359
1465,0.0
1466,779758.8083208914
1467,0.0
1468,476180.2528542882
1469,0.0
1470,3001620.429899363
1471,0.0
1472,2181862.2942348245
1473,0.0
1474,1964710.0150579967
1475,0.0
1476,1672564.8272878393
1477,0.0
1478,1243364.230511537
1479,0.0
1480,779938.010259467
1481,0.0
1482,1293592.3887126004
1483,0.0
1484,824849.952622448
1485,0.0
2,1, 1, 1, 0, 2, 0.00,60.00,Sunday
7,0.0
8,0.0
9,0.0
10,0.0
11,0.0
12,0.0
13,0.0
14,0.0
15,0.0
16,0.0
17,0.0
508,0.0
509,0.0
510,0.0
511,0.0
512,0.0
513,0.0
514,0.0
515,0.0
516,0.0
517,0.0
518,0.0
519,0.0
520,1237.5523389017808
521,0.0
522,114072.66564104671
523,0.0
524,119015.28757511542
525,0.0
526,50099.46050772783
527,0.0
528,60829.87941448485
529,0.0
530,93198.26776550272
531,0.0
532,71986.21895810848
533,0.0
534,96664.27965635534
535,0.0
536,312252.3761646055
537,0.0
538,145864.61133939628
539,0.0
540,154558.10867469572
541,0.0
542,168452.849864116
543,0.0
544,124201.38681209427
545,0.0
546,135877.38234901455
547,0.0
548,114854.6969972957
549,0.0
550,176561.23137081802
551,0.0
552,162943.4703761964
553,0.0
554,319999.8197595753
555,0.0
556,273088.96550975376
557,0.0
558,170880.72636900957
559,0.0
560,133405.42716827943
561,0.0
562,132341.6857954833
563,0.0
564,105793.32677551726
565,0.0
566,185865.36561633508
567,0.0
568,114963.76362640639
569,0.0
570,173176.12737883375
571,0.0
572,185861.24098661752
573,0.0
574,224895.13249788836
575,0.0
576,268761.42459465548
577,0.0
578,18833.690076248717
579,0.0
580,265292.68932015719
581,9036.883551864825
582,127.77601280346973
583,0.0
584,807.1572286842331
585,-20613.8286436277
586,0.0
587,75899.71349772642
588,-10026.248319177703
589,18870.019376573284
590,2960.744350003853
591,0.0
592,-119453.23531297087
593,-12028.22857230105
594,0.0
595,33232.76587699742
596,0.0
597,38184.101884873686
598,2667.777706156626
599,78591.94510960827
600,9491.891190414695
601,0.0
602,-2597.0717721506746
603,0.0
604,52756.57281837634
605,0.0
606,76192.6556439262
607,8523.499618508185
608,17201.996988006624
609,-399.3273351903874
610,0.0
611,-310259.0346706816
612,-5861.414692997831
613,-6138.821485718802
614,-18251.296385747446
615,0.0
616,5749.133207116562
617,252126.3805226674
618,35601.10044462235
619,0.0
620,110861.93747582856
621,-2309.2026083936154
622,-12191.064906631575
623,0.0
624,122254.21272656245
625,17344.367819695515
626,9671.887822649142
627,-846.956830622472
628,0.0
629,-127141.66543178585
630,0.0
631,55701.37661872852
632,0.0
633,82351.49926640521
634,11982.508804145915
635,84997.7927153548
636,7045.718867355067
637,58.59547896964747
638,11364.5552360567