Program Version,EnergyPlus, Version 9.3.0-baff08990c, YMD=2021.04.24 21:17
1,5,Environment Title[],Latitude[deg],Longitude[deg],Time Zone[],Elevation[m]
2,8,Day of Simulation[],Month[],Day of Month[],DST Indicator[1=yes 0=no],Hour[],StartMinute[],EndMinute[],DayType
3,5,Cumulative Day of Simulation[],Month[],Day of Month[],DST Indicator[1=yes 0=no],DayType  ! When Daily Report Variables Requested
4,2,Cumulative Days of Simulation[],Month[]  ! When Monthly Report Variables Requested
5,1,Cumulative Days of Simulation[] ! When Run Period Report Variables Requested
6,1,Calendar Year of Simulation[] ! When Annual Report Variables Requested
7,1,ROOM_5584D19A,Zone People Total Heating Energy [J] !Hourly
8,1,ROOM_7404D1B3,Zone People Total Heating Energy [J] !Hourly
9,1,ROOM_87D1E06E,Zone People Total Heating Energy [J] !Hourly
10,1,ROOM_EAAB9156,Zone People Total Heating Energy [J] !Hourly
11,1,ROOM_F4C6283E,Zone People Total Heating Energy [J] !Hourly
12,1,ROOM_F6DD9BCA,Zone People Total Heating Energy [J] !Hourly
313,1,ROOM_5584D19A,Zone Windows Total Transmitted Solar Radiation Energy [J] !Hourly
314,1,ROOM_7404D1B3,Zone Windows Total Transmitted Solar Radiation Energy [J] !Hourly
315,1,ROOM_87D1E06E,Zone Windows Total Transmitted Solar Radiation Energy [J] !Hourly
316,1,ROOM_EAAB9156,Zone Windows Total Transmitted Solar Radiation Energy [J] !Hourly
317,1,ROOM_F4C6283E,Zone Windows Total Transmitted Solar Radiation Energy [J] !Hourly
318,1,ROOM_F6DD9BCA,Zone Windows Total Transmitted Solar Radiation Energy [J] !Hourly
319,1,ROOM_5584D19A..FACE2_GLZ1,Surface Window Heat Gain Energy [J] !Hourly
320,1,ROOM_5584D19A..FACE2_GLZ1,Surface Window Heat Loss Energy [J] !Hourly
321,1,ROOM_5584D19A..FACE3_GLZ1,Surface Window Heat Gain Energy [J] !Hourly
322,1,ROOM_5584D19A..FACE3_GLZ1,Surface Window Heat Loss Energy [J] !Hourly
323,1,ROOM_7404D1B3..FACE1_GLZ1,Surface Window Heat Gain Energy [J] !Hourly
324,1,ROOM_7404D1B3..FACE1_GLZ1,Surface Window Heat Loss Energy [J] !Hourly
325,1,ROOM_7404D1B3..FACE4_GLZ1,Surface Window Heat Gain Energy [J] !Hourly
326,1,ROOM_7404D1B3..FACE4_GLZ1,Surface Window Heat Loss Energy [J] !Hourly
327,1,ROOM_87D1E06E..FACE5_GLZ1,Surface Window Heat Gain Energy [J] !Hourly
328,1,ROOM_87D1E06E..FACE5_GLZ1,Surface Window Heat Loss Energy [J] !Hourly
329,1,ROOM_EAAB9156..FACE4_GLZ1,Surface Window Heat Gain Energy [J] !Hourly
330,1,ROOM_EAAB9156..FACE4_GLZ1,Surface Window Heat Loss Energy [J] !Hourly
331,1,ROOM_F4C6283E..FACE3_GLZ1,Surface Window Heat Gain Energy [J] !Hourly
332,1,ROOM_F4C6283E..FACE3_GLZ1,Surface Window Heat Loss Energy [J] !Hourly
333,1,ROOM_F4C6283E..FACE4_GLZ1,Surface Window Heat Gain Energy [J] !Hourly
334,1,ROOM_F4C6283E..FACE4_GLZ1,Surface Window Heat Loss Energy [J] !Hourly
335,1,ROOM_F4C6283E..FACE5_GLZ1,Surface Window Heat Gain Energy [J] !Hourly
336,1,ROOM_F4C6283E..FACE5_GLZ1,Surface Window Heat Loss Energy [J] !Hourly
337,1,ROOM_F6DD9BCA..FACE1_GLZ1,Surface Window Heat Gain Energy [J] !Hourly
338,1,ROOM_F6DD9BCA..FACE1_GLZ1,Surface Window Heat Loss Energy [J] !Hourly
339,1,ROOM_F6DD9BCA..FACE2_GLZ1,Surface Window Heat Gain Energy [J] !Hourly
340,1,ROOM_F6DD9BCA..FACE2_GLZ1,Surface Window Heat Loss Energy [J] !Hourly
341,1,ROOM_5584D19A..FACE1,Surface Average Face Conduction Heat Transfer Energy [J] !Hourly
342,1,ROOM_5584D19A..FACE2,Surface Outside Face Solar Radiation Heat Gain Energy [J] !Hourly
343,1,ROOM_5584D19A..FACE2,Surface Average Face Conduction Heat Transfer Energy [J] !Hourly
344,1,ROOM_5584D19A..FACE3,Surface Outside Face Solar Radiation Heat Gain Energy [J] !Hourly
345,1,ROOM_5584D19A..FACE3,Surface Average Face Conduction Heat Transfer Energy [J] !Hourly
346,1,ROOM_5584D19A..FACE4,Surface Average Face Conduction Heat Transfer Energy [J] !Hourly
347,1,ROOM_5584D19A..FACE0,Surface Average Face Conduction Heat Transfer Energy [J] !Hourly
348,1,ROOM_5584D19A..FACE5,Surface Average Face Conduction Heat Transfer Energy [J] !Hourly
349,1,ROOM_7404D1B3..FACE1,Surface Outside Face Solar Radiation Heat Gain Energy [J] !Hourly
350,1,ROOM_7404D1B3..FACE1,Surface Average Face Conduction Heat Transfer Energy [J] !Hourly
351,1,ROOM_7404D1B3..FACE2,Surface Average Face Conduction Heat Transfer Energy [J] !Hourly
352,1,ROOM_7404D1B3..FACE3,Surface Average Face Conduction Heat Transfer Energy [J] !Hourly
353,1,ROOM_7404D1B3..FACE4,Surface Outside Face Solar Radiation Heat Gain Energy [J] !Hourly
354,1,ROOM_7404D1B3..FACE4,Surface Average Face Conduction Heat Transfer Energy [J] !Hourly
355,1,ROOM_7404D1B3..FACE0,Surface Average Face Conduction Heat Transfer Energy [J] !Hourly
356,1,ROOM_7404D1B3..FACE5,Surface Average Face Conduction Heat Transfer Energy [J] !Hourly
357,1,ROOM_87D1E06E..FACE1,Surface Average Face Conduction Heat Transfer Energy [J] !Hourly
358,1,ROOM_87D1E06E..FACE2,Surface Average Face Conduction Heat Transfer Energy [J] !Hourly
359,1,ROOM_87D1E06E..FACE3,Surface Average Face Conduction Heat Transfer Energy [J] !Hourly
360,1,ROOM_87D1E06E..FACE4,Surface Average Face Conduction Heat Transfer Energy [J] !Hourly
361,1,ROOM_87D1E06E..FACE5,Surface Outside Face Solar Radiation Heat Gain Energy [J] !Hourly
362,1,ROOM_87D1E06E..FACE5,Surface Average Face Conduction Heat Transfer Energy [J] !Hourly
363,1,ROOM_87D1E06E..FACE0,Surface Average Face Conduction Heat Transfer Energy [J] !Hourly
364,1,ROOM_87D1E06E..FACE6,Surface Average Face Conduction Heat Transfer Energy [J] !Hourly
365,1,ROOM_EAAB9156..FACE1,Surface Average Face Conduction Heat Transfer Energy [J] !Hourly
366,1,ROOM_EAAB9156..FACE2,Surface Average Face Conduction Heat Transfer Energy [J] !Hourly
367,1,ROOM_EAAB9156..FACE3,Surface Average Face Conduction Heat Transfer Energy [J] !Hourly
368,1,ROOM_EAAB9156..FACE4,Surface Outside Face Solar Radiation Heat Gain Energy [J] !Hourly
369,1,ROOM_EAAB9156..FACE4,Surface Average Face Conduction Heat Transfer Energy [J] !Hourly
370,1,ROOM_EAAB9156..FACE0,Surface Average Face Conduction Heat Transfer Energy [J] !Hourly
371,1,ROOM_EAAB9156..FACE5,Surface Average Face Conduction Heat Transfer Energy [J] !Hourly
372,1,ROOM_F4C6283E..FACE1,Surface Average Face Conduction Heat Transfer Energy [J] !Hourly
373,1,ROOM_F4C6283E..FACE2,Surface Average Face Conduction Heat Transfer Energy [J] !Hourly
374,1,ROOM_F4C6283E..FACE3,Surface Outside Face Solar Radiation Heat Gain Energy [J] !Hourly
375,1,ROOM_F4C6283E..FACE3,Surface Average Face Conduction Heat Transfer Energy [J] !Hourly
376,1,ROOM_F4C6283E..FACE4,Surface Outside Face Solar Radiation Heat Gain Energy [J] !Hourly
377,1,ROOM_F4C6283E..FACE4,Surface Average Face Conduction Heat Transfer Energy [J] !Hourly
378,1,ROOM_F4C6283E..FACE5,Surface Outside Face Solar Radiation Heat Gain Energy [J] !Hourly
379,1,ROOM_F4C6283E..FACE5,Surface Average Face Conduction Heat Transfer Energy [J] !Hourly
380,1,ROOM_F4C6283E..FACE0,Surface Average Face Conduction Heat Transfer Energy [J] !Hourly
381,1,ROOM_F4C6283E..FACE6,Surface Average Face Conduction Heat Transfer Energy [J] !Hourly
382,1,ROOM_F6DD9BCA..FACE1,Surface Outside Face Solar Radiation Heat Gain Energy [J] !Hourly
383,1,ROOM_F6DD9BCA..FACE1,Surface Average Face Conduction Heat Transfer Energy [J] !Hourly
384,1,ROOM_F6DD9BCA..FACE2,Surface Outside Face Solar Radiation Heat Gain Energy [J] !Hourly
385,1,ROOM_F6DD9BCA..FACE2,Surface Average Face Conduction Heat Transfer Energy [J] !Hourly
386,1,ROOM_F6DD9BCA..FACE3,Surface Average Face Conduction Heat Transfer Energy [J] !Hourly
387,1,ROOM_F6DD9BCA..FACE4,Surface Average Face Conduction Heat Transfer Energy [J] !Hourly
388,1,ROOM_F6DD9BCA..FACE5,Surface Average Face Conduction Heat Transfer Energy [J] !Hourly
389,1,ROOM_F6DD9BCA..FACE0,Surface Average Face Conduction Heat Transfer Energy [J] !Hourly
390,1,ROOM_F6DD9BCA..FACE6,Surface Average Face Conduction Heat Transfer Energy [J] !Hourly
391,1,ROOM_5584D19A,Zone Infiltration Total Heat Loss Energy [J] !Hourly
392,1,ROOM_5584D19A,Zone Infiltration Total Heat Gain Energy [J] !Hourly
393,1,ROOM_7404D1B3,Zone Infiltration Total Heat Loss Energy [J] !Hourly
394,1,ROOM_7404D1B3,Zone Infiltration Total Heat Gain Energy [J] !Hourly
395,1,ROOM_87D1E06E,Zone Infiltration Total Heat Loss Energy [J] !Hourly
396,1,ROOM_87D1E06E,Zone Infiltration Total Heat Gain Energy [J] !Hourly
397,1,ROOM_EAAB9156,Zone Infiltration Total Heat Loss Energy [J] !Hourly
398,1,ROOM_EAAB9156,Zone Infiltration Total Heat Gain Energy [J] !Hourly
399,1,ROOM_F4C6283E,Zone Infiltration Total Heat Loss Energy [J] !Hourly
400,1,ROOM_F4C6283E,Zone Infiltration Total Heat Gain Energy [J] !Hourly
401,1,ROOM_F6DD9BCA,Zone Infiltration Total Heat Loss Energy [J] !Hourly
402,1,ROOM_F6DD9BCA,Zone Infiltration Total Heat Gain Energy [J] !Hourly
850,1,ROOM_5584D19A IDEAL LOADS AIR SYSTEM,Zone Ideal Loads Supply Air Total Heating Energy [J] !Hourly
899,1,ROOM_5584D19A IDEAL LOADS AIR SYSTEM,Zone Ideal Loads Supply Air Total Cooling Energy [J] !Hourly
948,1,ROOM_5584D19A IDEAL LOADS AIR SYSTEM,Zone Ideal Loads Zone Total Heating Energy [J] !Hourly
949,1,ROOM_5584D19A IDEAL LOADS AIR SYSTEM,Zone Ideal Loads Zone Total Cooling Energy [J] !Hourly
950,1,ROOM_7404D1B3 IDEAL LOADS AIR SYSTEM,Zone Ideal Loads Supply Air Total Heating Energy [J] !Hourly
951,1,ROOM_7404D1B3 IDEAL LOADS AIR SYSTEM,Zone Ideal Loads Supply Air Total Cooling Energy [J] !Hourly
952,1,ROOM_7404D1B3 IDEAL LOADS AIR SYSTEM,Zone Ideal Loads Zone Total Heating Energy [J] !Hourly
953,1,ROOM_7404D1B3 IDEAL LOADS AIR SYSTEM,Zone Ideal Loads Zone Total Cooling Energy [J] !Hourly
954,1,ROOM_87D1E06E IDEAL LOADS AIR SYSTEM,Zone Ideal Loads Supply Air Total Heating Energy [J] !Hourly
955,1,ROOM_87D1E06E IDEAL LOADS AIR SYSTEM,Zone Ideal Loads Supply Air Total Cooling Energy [J] !Hourly
956,1,ROOM_87D1E06E IDEAL LOADS AIR SYSTEM,Zone Ideal Loads Zone Total Heating Energy [J] !Hourly
957,1,ROOM_87D1E06E IDEAL LOADS AIR SYSTEM,Zone Ideal Loads Zone Total Cooling Energy [J] !Hourly
958,1,ROOM_EAAB9156 IDEAL LOADS AIR SYSTEM,Zone Ideal Loads Supply Air Total Heating Energy [J] !Hourly
959,1,ROOM_EAAB9156 IDEAL LOADS AIR SYSTEM,Zone Ideal Loads Supply Air Total Cooling Energy [J] !Hourly
960,1,ROOM_EAAB9156 IDEAL LOADS AIR SYSTEM,Zone Ideal Loads Zone Total Heating Energy [J] !Hourly
961,1,ROOM_EAAB9156 IDEAL LOADS AIR SYSTEM,Zone Ideal Loads Zone Total Cooling Energy [J] !Hourly
962,1,ROOM_F4C6283E IDEAL LOADS AIR SYSTEM,Zone Ideal Loads Supply Air Total Heating Energy [J] !Hourly
963,1,ROOM_F4C6283E IDEAL LOADS AIR SYSTEM,Zone Ideal Loads Supply Air Total Cooling Energy [J] !Hourly
964,1,ROOM_F4C6283E IDEAL LOADS AIR SYSTEM,Zone Ideal Loads Zone Total Heating Energy [J] !Hourly
965,1,ROOM_F4C6283E IDEAL LOADS AIR SYSTEM,Zone Ideal Loads Zone Total Cooling Energy [J] !Hourly
966,1,ROOM_F6DD9BCA IDEAL LOADS AIR SYSTEM,Zone Ideal Loads Supply Air Total Heating Energy [J] !Hourly
967,1,ROOM_F6DD9BCA IDEAL LOADS AIR SYSTEM,Zone Ideal Loads Supply Air Total Cooling Energy [J] !Hourly
968,1,ROOM_F6DD9BCA IDEAL LOADS AIR SYSTEM,Zone Ideal Loads Zone Total Heating Energy [J] !Hourly
969,1,ROOM_F6DD9BCA IDEAL LOADS AIR SYSTEM,Zone Ideal Loads Zone Total Cooling Energy [J] !Hourly
End of Data Dictionary
1,RUN PERIOD 1,  42.37, -71.02,  -5.00,   6.00
2,1, 1, 1, 0, 1, 0.00,60.00,Sunday
7,0.0
8,0.0
9,0.0
10,0.0
11,0.0
12,0.0
313,0.0
314,0.0
315,0.0
316,0.0
317,0.0
318,0.0
319,0.0
320,274941.3014719362
321,0.0
322,342053.7144573547
323,0.0
324,72629.98130886573
325,0.0
326,317011.79144261879
327,0.0
328,203909.63078182535
329,0.0
330,95986.83721055696
331,0.0
332,1423.275930933064
333,0.0
334,71077.58473689748
335,0.0
336,178423.53165073927
337,0.0
338,567577.1800982517
339,0.0
340,324769.1721568923
341,41603.90112388
342,0.0
343,-188226.53613559056
344,0.0
345,-152295.61760813918
346,9918.91493622354
347,77296.29359841041
348,9190.708417309967
349,0.0
350,-139021.96286813837
351,38936.41699938413
352,-367.87881032876148
353,0.0
354,-304848.86107473829
355,96175.61531388968
356,11773.011228450565
357,-18549.24581736509
358,-3810.3361706524308
359,17447.920991795065
360,-11377.027475843464
361,0.0
362,-90279.27413848134
363,33295.23960812401
364,6145.15326270859
365,817.5019037959721
366,3912.5333365658404
367,-4068.5444348150429
368,0.0
369,-91075.30223963894
370,17712.917862820446
371,1962.6843162313056
372,3276.3935448578924
373,16089.160139097296
374,0.0
375,-716.1380327990331
376,0.0
377,-32730.911207096535
378,0.0
379,-171513.74421758628
380,32895.26980616098
381,2454.60935664776
382,0.0
383,-1050036.1471485068
384,0.0
385,-226335.60324421814
386,-36867.07608715042
387,-13117.912588035806
388,-31563.650410468614
389,454779.10252405537
390,74149.22801178077
391,392439.74982757258
392,0.0
393,246896.06263612148
394,0.0
395,126454.17648452035
396,0.0
397,60863.11254677294
398,0.0
399,164100.51725173856
400,0.0
401,540610.5337923373
402,0.0
850,1628413.2438411604
899,0.0
948,993332.8170771503
949,0.0
950,639811.6084423999
951,0.0
952,487015.00630746388
953,0.0
954,705558.9688093909
955,0.0
956,336477.577133614
957,0.0
958,202749.30383815967
959,0.0
960,156260.62829213099
961,0.0
962,517402.67153671596
963,0.0
964,428574.86171411586
965,0.0
966,1768444.423159834
967,0.0
968,635072.0416757927
969,0.0
2,1, 1, 1, 0, 2, 0.00,60.00,Sunday
7,0.0
8,0.0
9,0.0
10,0.0
11,0.0
12,0.0
313,0.0
314,0.0
315,0.0
316,0.0
317,0.0
318,0.0
319,0.0
320,213385.19210952987
321,0.0
322,265297.49751936239
323,0.0
324,56479.92723075751
325,0.0
326,246518.44917059184
327,0.0
328,158665.11154419566
329,0.0
330,74536.80100964556
331,0.0
332,1111.1519964824123
333,0.0
334,55082.675598850976
335,0.0
336,138163.89910652943
337,0.0
338,443655.9103013007
339,0.0
340,253820.24147400898
341,36857.75861501654
342,0.0
343,91066.85778757424
344,0.0
345,183838.1482500825
346,8789.881547162446
347,54914.33601843958
348,4032.790008567553
349,0.0
350,-57362.087467447076
351,34760.1873455361
352,-630.1845513517026
353,0.0
354,16131.138339697707
355,78609.52980041522
356,7881.429979894326
357,-17503.09269585966
358,-3976.368721463336
359,14827.813439341582
360,-11157.622059453039
361,0.0
362,105793.04714231644
363,25573.141219674144
364,3612.85495212703
365,325.36119674878287
366,3381.329012982475
367,-3917.6568200182884
368,0.0
369,6785.314528925693
370,14529.026032957818
371,1217.1941814575767
372,2729.610008433866
373,14725.892649987445
374,0.0
375,740.944516949426
376,0.0
377,38354.18490720112
378,0.0
379,15004.967505162645
380,25641.512473392137
381,1110.4537256920358
382,0.0
383,-437415.991962514
384,0.0
385,89022.01870218161
386,-34091.096141150665
387,-12131.110005120168
388,-30353.78854488374
389,384566.26405084357
390,58426.79561338507
391,300873.2924503434
392,0.0
393,195570.8181060249
394,0.0
395,95439.30954835152
396,0.0
397,47808.01680767243
398,0.0
399,130068.81354317116
400,0.0
401,411355.79426404219
402,0.0
850,1333443.8477569905
899,0.0
948,840034.4067899936
949,0.0
950,529433.7187890041
951,0.0
952,406079.9727994089
953,0.0
954,575452.5011559931
955,0.0
956,293568.62128123137
957,0.0
958,170109.5277696115
959,0.0
960,132967.54680108149
961,0.0
962,431270.77380194378
963,0.0
964,359483.15694198288
965,0.0
966,1388414.5832492968
967,0.0
968,515154.39506792897
969,0.0
2,1, 1, 1, 0, 3, 0.00,60.00,Sunday
7,0.0
8,0.0
9,0.0
10,0.0
11,0.0
12,0.0
313,0.0
314,0.0
315,0.0
316,0.0
317,0.0
318,0.0
319,0.0
320,218740.11439545163
321,0.0
322,271983.3134456755
323,0.0
324,57700.12783928575
325,0.0
326,251819.3916277489
327,0.0
328,162681.80499252599
329,0.0
330,76399.04270784586
331,0.0
332,1140.2741120123438
333,0.0
334,56481.49724621393
335,0.0
336,141699.81112422827
337,0.0
338,452122.3853452934
339,0.0
340,258643.83237975418
341,36751.25853154381
342,0.0
343,-17629.91542034407
344,0.0
345,43841.80700665224
346,11331.705794852876
347,51346.18077522036
348,4539.32676510435
349,0.0
350,-79517.14193406706
351,37957.3972326544
352,646.2608810716649
353,0.0
354,-99800.64671329531
355,68903.08749931815
356,6579.225039810428
357,-15922.235014587684
358,-3458.754098825828
359,13832.676078718094
360,-9359.2322074761
361,0.0
362,23297.15969543254
363,23322.26501935857
364,3114.7184560617076
365,795.7490292463061
366,4308.377446014338
367,-2982.283005695727
368,0.0
369,-29018.100673314155
370,12798.719997983399
371,971.6950493316458
372,3695.0353737564335
373,17395.05593975451
374,0.0
375,145.13467713782624
376,0.0
377,9192.432404713734
378,0.0
379,-52357.39240531275
380,22493.099160411628
381,1028.6063144708783
382,0.0
383,-606936.94442749
384,0.0
385,-33143.1137672825
386,-27604.490675678295
387,-8554.319643911196
388,-25946.16246832887
389,349176.3492755973
390,54385.11567451709
391,333523.4691766809
392,0.0
393,212449.5699574803
394,0.0
395,106298.58635573577
396,0.0
397,52295.504231042025
398,0.0
399,141169.64117478545
400,0.0
401,457192.4673419686
402,0.0
850,1374179.5901681849
899,0.0
948,818539.1774301005
949,0.0
950,563972.301401391
951,0.0
952,427488.9637758891
953,0.0
954,592688.7889516769
955,0.0
956,274290.4063829394
957,0.0
958,175523.0426841687
959,0.0
960,134159.64554624
961,0.0
962,442802.3556202722
963,0.0
964,363452.7369767243
965,0.0
966,1513059.7417669988
967,0.0
968,527870.3156099182
969,0.0
2,1, 1, 1, 0, 4, 0.00,60.00,Sunday
7,0.0
8,0.0
9,0.0
10,0.0
11,0.0
12,0.0
313,0.0
314,0.0
315,0.0
316,0.0
317,0.0
318,0.0
319,0.0
320,221736.1490955707
321,0.0
322,275735.66744135957
323,0.0
324,58286.334287981714
325,0.0
326,254326.07005656267
327,0.0
328,164965.29745641814
329,0.0
330,77424.07722243667
331,0.0
332,1155.1033993696277
333,0.0
334,57229.17792270416
335,0.0
336,143637.00059359493
337,0.0
338,456038.89221741966
339,0.0
340,260754.6161187932
341,34019.03041105263
342,0.0
343,-72640.88123605428
344,0.0
345,-30290.58663846301
346,11990.71074104487
347,48640.24054613567
348,5016.024536092905
349,0.0
350,-87046.85306486236
351,37610.756742469384
352,1168.867243529583
353,0.0
354,-154020.26228658917
355,61399.67660453292
356,5717.581823711392
357,-15899.920344667826
358,-3468.114201826257
359,12048.020384504583
360,-9070.429919109085
361,0.0
362,-20056.98516526943
363,22135.808313683734
364,3006.8253079046164
365,623.2807968700937
366,4710.040219048975
367,-2762.4104598097349
368,0.0
369,-45752.69260431893
370,11396.1928759714
371,841.4260818281647
372,3892.293128394353
373,18214.816115757254
374,0.0
375,-167.0657805146868
376,0.0
377,-6277.802300852854
378,0.0
379,-84151.18461589131
380,19988.20421167529
381,1032.7488689407942
382,0.0
383,-664546.8908082354
384,0.0
385,-94455.04084070167
386,-24250.276755794395
387,-6454.179968721171
388,-24994.443632679468
389,319658.49868567308
390,51125.934971154056
391,348492.8470209614
392,0.0
393,218686.76523764269
394,0.0
395,111783.60951081658
396,0.0
397,54041.028773211896
398,0.0
399,145260.24035292149
400,0.0
401,479238.1162605105
402,0.0
850,1412222.858570791
899,0.0
948,828782.7707128439
949,0.0
950,597144.8968521381
951,0.0
952,456208.17269767387
953,0.0
954,610095.1279142625
955,0.0
956,273528.94820703947
957,0.0
958,181949.7908683422
959,0.0
960,139042.55730619413
961,0.0
962,455790.90066028377
963,0.0
964,373887.3344649922
965,0.0
966,1622251.0240316643
967,0.0
968,584295.9288761285
969,0.0
2,1, 1, 1, 0, 5, 0.00,60.00,Sunday
7,0.0
8,0.0
9,0.0
10,0.0
11,0.0
12,0.0
313,0.0
314,0.0
315,0.0
316,0.0
317,0.0
318,0.0
319,0.0
320,221137.0272413471
321,0.0
322,274982.53949678278
323,0.0
324,57973.649885721534
325,0.0
326,252894.2202529448
327,0.0
328,164549.8601245734
329,0.0
330,77185.45704251576
331,0.0
332,1150.466316992812
333,0.0
334,57044.074249655925
335,0.0
336,143222.1942803471
337,0.0
338,453210.43096027339
339,0.0
340,259026.02572345243
341,30757.88269202802
342,0.0
343,-90617.92853684159
344,0.0
345,-58404.60580511979
346,11927.968665506703
347,44958.63776400767
348,4963.034401070104
349,0.0
350,-85372.82032025239
351,36197.0614261236
352,1364.2521797593618
353,0.0
354,-167358.2680739732
355,55227.84754687839
356,4940.157606550502
357,-16251.041108251718
358,-3668.8973181667477
359,10132.468479837231
360,-9258.3292814493
361,0.0
362,-36425.86455920067
363,20838.34941939693
364,2855.1311338686498
365,251.50976034311368
366,4835.351819854953
367,-2777.2103229431279
368,0.0
369,-49950.57248064509
370,10108.938284912865
371,731.2813136363034
372,3794.8379375563915
373,18312.97879404756
374,0.0
375,-276.8213142535517
376,0.0
377,-12117.2086113067
378,0.0
379,-92227.84151426055
380,17605.088696047344
381,966.8760839834652
382,0.0
383,-652526.4598320198
384,0.0
385,-114111.65714881089
386,-22273.061525767334
387,-5192.014901188834
388,-25217.286409898195
389,291128.1104316343
390,46000.55286929969
391,354756.16729023426
392,0.0
393,220801.71160024807
394,0.0
395,114330.00920180905
396,0.0
397,54661.22697983442
398,0.0
399,146626.12332606608
400,0.0
401,488944.819023908
402,0.0
850,1427834.1951378757
899,0.0
948,834766.7638342998
949,2959.737067188871
950,617482.5868218574
951,0.0
952,476000.2737735274
953,1223.1608248278747
954,618305.9106169706
955,0.0
956,273609.9998839978
957,842.0958159522257
958,186074.5848073453
959,0.0
960,142891.55996478565
961,347.85811697853719
962,462470.45991511506
963,0.0
964,380270.5504181494
965,710.3459982417547
966,1697186.725143356
967,0.0
968,638223.8670908716
969,3903.0594932100655
2,1, 1, 1, 0, 6, 0.00,60.00,Sunday
7,0.0
8,0.0
9,0.0
10,0.0
11,0.0
12,0.0
313,0.0
314,0.0
315,0.0
316,0.0
317,0.0
318,0.0
319,0.0
320,221632.00435703904
321,0.0
322,275592.08677969416
323,0.0
324,57885.41705513497
325,0.0
326,252504.74980907789
327,0.0
328,164953.07718539783
329,0.0
330,77237.61180672102
331,0.0
332,1154.087315392514
333,0.0
334,57140.802363864335
335,0.0
336,143341.7537167227
337,0.0
338,452234.05785539947
339,0.0
340,258744.45242421604
341,27961.23590630578
342,0.0
343,-96638.36084100581
344,0.0
345,-68315.03906847959
346,11851.524313871447
347,41411.154277955626
348,4753.4560269115559
349,0.0
350,-83899.76745903642
351,34950.29248169863
352,1508.2369448027956
353,0.0
354,-172265.6759895235
355,49460.585393458605
356,4267.893476692018
357,-16548.818578479153
358,-3864.4480384799646
359,8459.160730902187
360,-9437.563045906607
361,0.0
362,-42278.35799007878
363,19531.24011099352
364,2676.6403398362629
365,-92.3665712729829
366,4911.007462160249
367,-2800.3756003905407
368,0.0
369,-51512.45414292619
370,8951.628809457312
371,636.9312344531346
372,3691.6679158427757
373,18366.36365252138
374,0.0
375,-329.0779765453818
376,0.0
377,-14149.655910248086
378,0.0
379,-95188.2723484845
380,15479.588703842037
381,883.9257941601312
382,0.0
383,-641972.655812663
384,0.0
385,-120846.81362939682
386,-20525.102297163263
387,-4116.2715211715
388,-25404.842627134953
389,265417.8792998247
390,40857.83046374108
391,355583.01060193279
392,0.0
393,220321.79794328303
394,0.0
395,114968.81227794798
396,0.0
397,54589.33785938631
398,0.0
399,146290.11484404317
400,0.0
401,490814.6599005834
402,0.0
850,1442227.223052804
899,0.0
948,848499.2141600538
949,4110.946373447206
950,635952.518404037
951,0.0
952,494475.2908722169
953,884.7790391832746
954,626028.5525268033
955,0.0
956,280016.9938542487
957,1838.9612855599267
958,189844.3592369221
959,0.0
960,146664.1055208368
961,294.0231225857673
962,468367.7586734275
963,0.0
964,386170.4236137253
965,498.3274569546495
966,1765123.1073230927
967,0.0
968,703933.535563906
969,6704.061009387458
2,1, 1, 1, 0, 7, 0.00,60.00,Sunday
7,26056.901099916
8,6209.315007516
9,15184.500088401006
10,1895.1704975159994
11,3607.554010716001
12,46569.577123115996
313,0.0
314,0.0
315,0.0
316,0.0
317,0.0
318,0.0
319,0.0
320,226416.17551621964
321,0.0
322,281530.6023132842
323,0.0
324,58978.76323184044
325,0.0
326,257676.75947398804
327,0.0
328,168554.9323036059
329,0.0
330,78989.74920298143
331,0.0
332,1184.330056003151
333,0.0
334,58433.72173303344
335,0.0
336,146626.89544078144
337,0.0
338,459586.50827605978
339,0.0
340,263382.36144184137
341,24714.309263445088
342,0.0
343,-129019.80936572401
344,0.0
345,-110287.4185293868
346,11066.593977727103
347,35413.42803078453
348,3529.8288768078539
349,0.0
350,-89634.5482239742
351,33978.760293145686
352,1588.6178450930925
353,0.0
354,-206326.05149394636
355,43961.4977895473
356,3637.6007831710369
357,-17337.450417596185
358,-4322.643912976162
359,6503.504492962488
360,-10304.730557342138
361,0.0
362,-66910.73066334435
363,16670.960230444918
364,1903.0563401032389
365,-429.13248706832169
366,4959.747537954818
367,-2859.532895752719
368,0.0
369,-61931.39824120868
370,7867.617406787788
371,537.5221645882504
372,3583.558368469702
373,18483.672170403
374,0.0
375,-532.2478446026859
376,0.0
377,-22836.35918047883
378,0.0
379,-114915.06016568977
380,13545.288047512518
381,779.8646146691012
382,0.0
383,-686503.9707016647
384,0.0
385,-157500.11433388139
386,-20073.340890230815
387,-3826.3628334257766
388,-26669.055257183245
389,237096.6936550989
390,34013.97430860199
391,362072.46818038509
392,0.0
393,224325.8494338941
394,0.0
395,117188.78779213198
396,0.0
397,55568.58894666865
398,0.0
399,148955.51670989226
400,0.0
401,499978.0804753635
402,0.0
850,1436236.5404144303
899,0.0
948,830508.0148958098
949,1215.2235993881562
950,652898.6848781452
951,0.0
952,508553.30504080108
953,119.06619189157368
954,619113.0859805552
955,0.0
956,266123.1895880518
957,626.1911819653136
958,192834.38474917986
959,0.0
960,148778.55738461135
961,53.29453233505319
962,474306.7149653255
963,0.0
964,390443.12490800928
965,58.10784805365188
966,1786570.3862393152
967,0.0
968,703979.7083514484
969,2157.888895305905
2,1, 1, 1, 0, 8, 0.00,60.00,Sunday
7,26056.901099916
8,6209.315007516
9,15184.500088401006
10,1895.1704975159994
11,3607.554010716001
12,46569.577123115996
313,123304.09743520245
314,54814.491750987436
315,23395.631809376202
316,11089.979750337316
317,29843.043088002487
318,230931.66738867225
319,5464.689369950667
320,130715.51969151199
321,0.0
322,237703.36821721507
323,0.0
324,36628.52011188037
325,0.0
326,217499.43846919857
327,0.0
328,142999.47711130038
329,0.0
330,66871.28084197367
331,0.0
332,1059.1935582846959
333,0.0
334,48993.02914843367
335,0.0
336,123439.80459064279
337,0.0
338,293514.83315066757
339,4951.39568059994
340,153557.588688956
341,15883.045750585174
342,381215.2844533634
343,-29829.610507734043
344,186964.12663610534
345,-92038.09945147873
346,5344.348319886038
347,1687.6716421711363
348,-1702.4344233277807
349,85007.82299321276
350,-64581.15811788883
351,25240.868193409366
352,26.011672777589184
353,170125.62957825099
354,-183058.95211300945
355,31904.896049294468
356,1937.0753746497915
357,-18493.5628469992
358,-5020.62421390745
359,4397.576727517522
360,-11712.416039254647
361,108515.78810940139
362,-54530.21809681646
363,10782.681065921493
364,833.1400519230419
365,-1555.50281926149
366,3784.5555557973968
367,-3757.1171697578658
368,51690.18174704335
369,-54349.53260999059
370,5952.30873303603
371,268.9936454251314
372,2049.3688039387968
373,14566.75424279198
374,627.7825579702488
375,-498.0668787731591
376,39727.93769918408
377,-18867.725471023754
378,98907.94232921349
379,-101175.39493756129
380,8859.898720088653
381,110.46164824348264
382,635012.7410637844
383,-498848.2361614662
384,429861.5222037403
385,-45998.18248897391
386,-26768.82181288707
387,-7901.231595803012
388,-33985.59809393709
389,150880.27534654895
390,18857.8527657324
391,371124.0302775698
392,0.0
393,229695.38433510744
394,0.0
395,120210.14505977616
396,0.0
397,56911.97334826371
398,0.0
399,152496.10356471179
400,0.0
401,512643.6072355313
402,0.0
850,1433236.9518673046
899,0.0
948,819141.6273493129
949,7702.718641775749
950,661113.2943995673
951,0.0
952,514788.3272070993
953,1591.2388525899417
954,625618.68327201
955,0.0
956,267731.59969360879
957,4621.482308617511
958,194712.75097841526
959,0.0
960,150052.8233266875
961,506.5848464438673
962,475641.4937158756
963,0.0
964,390627.5190823303
965,902.7659056324524
966,1811546.971597413
967,0.0
968,713920.1254821785
969,13963.021862779744
2,1, 1, 1, 0, 9, 0.00,60.00,Sunday
7,26056.901099916
8,6209.315007516
9,15184.500088401006
10,1895.1704975159994
11,3607.554010716001
12,46569.577123115996
313,727683.746025105
314,299387.2223290692
315,90487.99470939102
316,42984.55635221215
317,115313.89345589254
318,1811247.3230679658
319,495781.5195575232
320,0.0
321,0.0
322,92606.47073438634
323,138822.81993918893
324,0.0
325,0.0
326,85206.84758894233
327,0.0
328,58532.75056295456
329,0.0
330,26974.75838009448
331,0.0
332,656.9888112539745
333,0.0
334,18385.899247575984
335,0.0
336,47598.79667808379
337,1013682.0441155159
338,0.0
339,550168.6388816413
340,0.0
341,-7935.819279339569
342,2587758.913015429
343,687779.8034852785
344,733410.7746656307
345,28237.786581360153
346,-17654.73015681453
347,-183826.95032695036
348,-25560.398331773056
349,706164.481018257
350,147977.41823386897
351,1338.9345554862017
352,-5682.866702413363
353,669267.9885032512
354,-57623.43931168954
355,-20887.35867279505
356,-3903.2513156621246
357,-19542.418111025483
358,-6269.475866215445