Program Version,EnergyPlus, Version 9.3.0-baff08990c, YMD=2021.04.24 19:50
1,5,Environment Title[],Latitude[deg],Longitude[deg],Time Zone[],Elevation[m]
2,8,Day of Simulation[],Month[],Day of Month[],DST Indicator[1=yes 0=no],Hour[],StartMinute[],EndMinute[],DayType
3,5,Cumulative Day of Simulation[],Month[],Day of Month[],DST Indicator[1=yes 0=no],DayType  ! When Daily Report Variables Requested
4,2,Cumulative Days of Simulation[],Month[]  ! When Monthly Report Variables Requested
5,1,Cumulative Days of Simulation[] ! When Run Period Report Variables Requested
6,1,Calendar Year of Simulation[] ! When Annual Report Variables Requested
7,1,ROOM_0D36CD4B,Zone People Total Heating Energy [J] !Hourly
8,1,ROOM_130D23AB,Zone People Total Heating Energy [J] !Hourly
9,1,ROOM_2EDBE62A,Zone People Total Heating Energy [J] !Hourly
10,1,ROOM_2F0F7489,Zone People Total Heating Energy [J] !Hourly
11,1,ROOM_5574C62D,Zone People Total Heating Energy [J] !Hourly
12,1,ROOM_5AF7BAD1,Zone People Total Heating Energy [J] !Hourly
13,1,ROOM_88FEF69C,Zone People Total Heating Energy [J] !Hourly
14,1,ROOM_A7490DDA,Zone People Total Heating Energy [J] !Hourly
15,1,ROOM_B6F4B054,Zone People Total Heating Energy [J] !Hourly
16,1,ROOM_BC4FD91B,Zone People Total Heating Energy [J] !Hourly
17,1,ROOM_BC9BC96A,Zone People Total Heating Energy [J] !Hourly
18,1,ROOM_C2BC5DA9,Zone People Total Heating Energy [J] !Hourly
19,1,ROOM_CB2FE595,Zone People Total Heating Energy [J] !Hourly
20,1,ROOM_DADC2C2D,Zone People Total Heating Energy [J] !Hourly
21,1,ROOM_DD2E7A87,Zone People Total Heating Energy [J] !Hourly
664,1,ROOM_0D36CD4B,Zone Windows Total Transmitted Solar Radiation Energy [J] !Hourly
665,1,ROOM_130D23AB,Zone Windows Total Transmitted Solar Radiation Energy [J] !Hourly
666,1,ROOM_2EDBE62A,Zone Windows Total Transmitted Solar Radiation Energy [J] !Hourly
667,1,ROOM_2F0F7489,Zone Windows Total Transmitted Solar Radiation Energy [J] !Hourly
668,1,ROOM_5574C62D,Zone Windows Total Transmitted Solar Radiation Energy [J] !Hourly
669,1,ROOM_5AF7BAD1,Zone Windows Total Transmitted Solar Radiation Energy [J] !Hourly
670,1,ROOM_88FEF69C,Zone Windows Total Transmitted Solar Radiation Energy [J] !Hourly
671,1,ROOM_A7490DDA,Zone Windows Total Transmitted Solar Radiation Energy [J] !Hourly
672,1,ROOM_B6F4B054,Zone Windows Total Transmitted Solar Radiation Energy [J] !Hourly
673,1,ROOM_BC4FD91B,Zone Windows Total Transmitted Solar Radiation Energy [J] !Hourly
674,1,ROOM_BC9BC96A,Zone Windows Total Transmitted Solar Radiation Energy [J] !Hourly
675,1,ROOM_C2BC5DA9,Zone Windows Total Transmitted Solar Radiation Energy [J] !Hourly
676,1,ROOM_CB2FE595,Zone Windows Total Transmitted Solar Radiation Energy [J] !Hourly
677,1,ROOM_DADC2C2D,Zone Windows Total Transmitted Solar Radiation Energy [J] !Hourly
678,1,ROOM_DD2E7A87,Zone Windows Total Transmitted Solar Radiation Energy [J] !Hourly
679,1,ROOM_0D36CD4B..FACE4_GLZ1,Surface Window Heat Gain Energy [J] !Hourly
680,1,ROOM_0D36CD4B..FACE4_GLZ1,Surface Window Heat Loss Energy [J] !Hourly
681,1,ROOM_0D36CD4B..FACE5_GLZ1,Surface Window Heat Gain Energy [J] !Hourly
682,1,ROOM_0D36CD4B..FACE5_GLZ1,Surface Window Heat Loss Energy [J] !Hourly
683,1,ROOM_130D23AB..FACE3_GLZ1,Surface Window Heat Gain Energy [J] !Hourly
684,1,ROOM_130D23AB..FACE3_GLZ1,Surface Window Heat Loss Energy [J] !Hourly
685,1,ROOM_2EDBE62A..FACE1_GLZ1,Surface Window Heat Gain Energy [J] !Hourly
686,1,ROOM_2EDBE62A..FACE1_GLZ1,Surface Window Heat Loss Energy [J] !Hourly
687,1,ROOM_2F0F7489..FACE4_GLZ1,Surface Window Heat Gain Energy [J] !Hourly
688,1,ROOM_2F0F7489..FACE4_GLZ1,Surface Window Heat Loss Energy [J] !Hourly
689,1,ROOM_2F0F7489..FACE5_GLZ1,Surface Window Heat Gain Energy [J] !Hourly
690,1,ROOM_2F0F7489..FACE5_GLZ1,Surface Window Heat Loss Energy [J] !Hourly
691,1,ROOM_5574C62D..FACE1_GLZ1,Surface Window Heat Gain Energy [J] !Hourly
692,1,ROOM_5574C62D..FACE1_GLZ1,Surface Window Heat Loss Energy [J] !Hourly
693,1,ROOM_5AF7BAD1..FACE3_GLZ1,Surface Window Heat Gain Energy [J] !Hourly
694,1,ROOM_5AF7BAD1..FACE3_GLZ1,Surface Window Heat Loss Energy [J] !Hourly
695,1,ROOM_5AF7BAD1..FACE4_GLZ1,Surface Window Heat Gain Energy [J] !Hourly
696,1,ROOM_5AF7BAD1..FACE4_GLZ1,Surface Window Heat Loss Energy [J] !Hourly
697,1,ROOM_88FEF69C..FACE1_GLZ1,Surface Window Heat Gain Energy [J] !Hourly
698,1,ROOM_88FEF69C..FACE1_GLZ1,Surface Window Heat Loss Energy [J] !Hourly
699,1,ROOM_88FEF69C..FACE2_GLZ1,Surface Window Heat Gain Energy [J] !Hourly
700,1,ROOM_88FEF69C..FACE2_GLZ1,Surface Window Heat Loss Energy [J] !Hourly
701,1,ROOM_A7490DDA..FACE2_GLZ1,Surface Window Heat Gain Energy [J] !Hourly
702,1,ROOM_A7490DDA..FACE2_GLZ1,Surface Window Heat Loss Energy [J] !Hourly
703,1,ROOM_A7490DDA..FACE3_GLZ1,Surface Window Heat Gain Energy [J] !Hourly
704,1,ROOM_A7490DDA..FACE3_GLZ1,Surface Window Heat Loss Energy [J] !Hourly
705,1,ROOM_B6F4B054..FACE3_GLZ1,Surface Window Heat Gain Energy [J] !Hourly
706,1,ROOM_B6F4B054..FACE3_GLZ1,Surface Window Heat Loss Energy [J] !Hourly
707,1,ROOM_BC4FD91B..FACE1_GLZ1,Surface Window Heat Gain Energy [J] !Hourly
708,1,ROOM_BC4FD91B..FACE1_GLZ1,Surface Window Heat Loss Energy [J] !Hourly
709,1,ROOM_BC4FD91B..FACE4_GLZ1,Surface Window Heat Gain Energy [J] !Hourly
710,1,ROOM_BC4FD91B..FACE4_GLZ1,Surface Window Heat Loss Energy [J] !Hourly
711,1,ROOM_BC9BC96A..FACE1_GLZ1,Surface Window Heat Gain Energy [J] !Hourly
712,1,ROOM_BC9BC96A..FACE1_GLZ1,Surface Window Heat Loss Energy [J] !Hourly
713,1,ROOM_C2BC5DA9..FACE3_GLZ1,Surface Window Heat Gain Energy [J] !Hourly
714,1,ROOM_C2BC5DA9..FACE3_GLZ1,Surface Window Heat Loss Energy [J] !Hourly
715,1,ROOM_C2BC5DA9..FACE4_GLZ1,Surface Window Heat Gain Energy [J] !Hourly
716,1,ROOM_C2BC5DA9..FACE4_GLZ1,Surface Window Heat Loss Energy [J] !Hourly
717,1,ROOM_DD2E7A87..FACE2_GLZ1,Surface Window Heat Gain Energy [J] !Hourly
718,1,ROOM_DD2E7A87..FACE2_GLZ1,Surface Window Heat Loss Energy [J] !Hourly
719,1,ROOM_DD2E7A87..FACE3_GLZ1,Surface Window Heat Gain Energy [J] !Hourly
720,1,ROOM_DD2E7A87..FACE3_GLZ1,Surface Window Heat Loss Energy [J] !Hourly
721,1,ROOM_0D36CD4B..FACE1,Surface Average Face Conduction Heat Transfer Energy [J] !Hourly
722,1,ROOM_0D36CD4B..FACE2,Surface Average Face Conduction Heat Transfer Energy [J] !Hourly
723,1,ROOM_0D36CD4B..FACE3,Surface Average Face Conduction Heat Transfer Energy [J] !Hourly
724,1,ROOM_0D36CD4B..FACE4,Surface Outside Face Solar Radiation Heat Gain Energy [J] !Hourly
725,1,ROOM_0D36CD4B..FACE4,Surface Average Face Conduction Heat Transfer Energy [J] !Hourly
726,1,ROOM_0D36CD4B..FACE5,Surface Outside Face Solar Radiation Heat Gain Energy [J] !Hourly
727,1,ROOM_0D36CD4B..FACE5,Surface Average Face Conduction Heat Transfer Energy [J] !Hourly
728,1,ROOM_0D36CD4B..FACE6,Surface Average Face Conduction Heat Transfer Energy [J] !Hourly
729,1,ROOM_0D36CD4B..FACE7,Surface Average Face Conduction Heat Transfer Energy [J] !Hourly
730,1,ROOM_0D36CD4B..FACE0,Surface Average Face Conduction Heat Transfer Energy [J] !Hourly
731,1,ROOM_0D36CD4B..FACE8,Surface Average Face Conduction Heat Transfer Energy [J] !Hourly
732,1,ROOM_130D23AB..FACE1,Surface Average Face Conduction Heat Transfer Energy [J] !Hourly
733,1,ROOM_130D23AB..FACE2,Surface Average Face Conduction Heat Transfer Energy [J] !Hourly
734,1,ROOM_130D23AB..FACE3,Surface Outside Face Solar Radiation Heat Gain Energy [J] !Hourly
735,1,ROOM_130D23AB..FACE3,Surface Average Face Conduction Heat Transfer Energy [J] !Hourly
736,1,ROOM_130D23AB..FACE4,Surface Average Face Conduction Heat Transfer Energy [J] !Hourly
737,1,ROOM_130D23AB..FACE0,Surface Average Face Conduction Heat Transfer Energy [J] !Hourly
738,1,ROOM_130D23AB..FACE5,Surface Average Face Conduction Heat Transfer Energy [J] !Hourly
739,1,ROOM_2EDBE62A..FACE1,Surface Outside Face Solar Radiation Heat Gain Energy [J] !Hourly
740,1,ROOM_2EDBE62A..FACE1,Surface Average Face Conduction Heat Transfer Energy [J] !Hourly
741,1,ROOM_2EDBE62A..FACE2,Surface Average Face Conduction Heat Transfer Energy [J] !Hourly
742,1,ROOM_2EDBE62A..FACE3,Surface Average Face Conduction Heat Transfer Energy [J] !Hourly
743,1,ROOM_2EDBE62A..FACE4,Surface Average Face Conduction Heat Transfer Energy [J] !Hourly
744,1,ROOM_2EDBE62A..FACE5,Surface Average Face Conduction Heat Transfer Energy [J] !Hourly
745,1,ROOM_2EDBE62A..FACE0,Surface Average Face Conduction Heat Transfer Energy [J] !Hourly
746,1,ROOM_2EDBE62A..FACE6,Surface Average Face Conduction Heat Transfer Energy [J] !Hourly
747,1,ROOM_2F0F7489..FACE1,Surface Average Face Conduction Heat Transfer Energy [J] !Hourly
748,1,ROOM_2F0F7489..FACE2,Surface Average Face Conduction Heat Transfer Energy [J] !Hourly
749,1,ROOM_2F0F7489..FACE3,Surface Average Face Conduction Heat Transfer Energy [J] !Hourly
750,1,ROOM_2F0F7489..FACE4,Surface Outside Face Solar Radiation Heat Gain Energy [J] !Hourly
751,1,ROOM_2F0F7489..FACE4,Surface Average Face Conduction Heat Transfer Energy [J] !Hourly
752,1,ROOM_2F0F7489..FACE5,Surface Outside Face Solar Radiation Heat Gain Energy [J] !Hourly
753,1,ROOM_2F0F7489..FACE5,Surface Average Face Conduction Heat Transfer Energy [J] !Hourly
754,1,ROOM_2F0F7489..FACE0,Surface Average Face Conduction Heat Transfer Energy [J] !Hourly
755,1,ROOM_2F0F7489..FACE6,Surface Average Face Conduction Heat Transfer Energy [J] !Hourly
756,1,ROOM_5574C62D..FACE1,Surface Outside Face Solar Radiation Heat Gain Energy [J] !Hourly
757,1,ROOM_5574C62D..FACE1,Surface Average Face Conduction Heat Transfer Energy [J] !Hourly
758,1,ROOM_5574C62D..FACE2,Surface Average Face Conduction Heat Transfer Energy [J] !Hourly
759,1,ROOM_5574C62D..FACE3,Surface Average Face Conduction Heat Transfer Energy [J] !Hourly
760,1,ROOM_5574C62D..FACE4,Surface Average Face Conduction Heat Transfer Energy [J] !Hourly
761,1,ROOM_5574C62D..FACE0,Surface Average Face Conduction Heat Transfer Energy [J] !Hourly
762,1,ROOM_5574C62D..FACE5,Surface Average Face Conduction Heat Transfer Energy [J] !Hourly
763,1,ROOM_5AF7BAD1..FACE1,Surface Average Face Conduction Heat Transfer Energy [J] !Hourly
764,1,ROOM_5AF7BAD1..FACE2,Surface Average Face Conduction Heat Transfer Energy [J] !Hourly
765,1,ROOM_5AF7BAD1..FACE3,Surface Outside Face Solar Radiation Heat Gain Energy [J] !Hourly
766,1,ROOM_5AF7BAD1..FACE3,Surface Average Face Conduction Heat Transfer Energy [J] !Hourly
767,1,ROOM_5AF7BAD1..FACE4,Surface Outside Face Solar Radiation Heat Gain Energy [J] !Hourly
768,1,ROOM_5AF7BAD1..FACE4,Surface Average Face Conduction Heat Transfer Energy [J] !Hourly
769,1,ROOM_5AF7BAD1..FACE5,Surface Average Face Conduction Heat Transfer Energy [J] !Hourly
770,1,ROOM_5AF7BAD1..FACE6,Surface Average Face Conduction Heat Transfer Energy [J] !Hourly
771,1,ROOM_5AF7BAD1..FACE0,Surface Average Face Conduction Heat Transfer Energy [J] !Hourly
772,1,ROOM_5AF7BAD1..FACE7,Surface Average Face Conduction Heat Transfer Energy [J] !Hourly
773,1,ROOM_88FEF69C..FACE1,Surface Outside Face Solar Radiation Heat Gain Energy [J] !Hourly
774,1,ROOM_88FEF69C..FACE1,Surface Average Face Conduction Heat Transfer Energy [J] !Hourly
775,1,ROOM_88FEF69C..FACE2,Surface Outside Face Solar Radiation Heat Gain Energy [J] !Hourly
776,1,ROOM_88FEF69C..FACE2,Surface Average Face Conduction Heat Transfer Energy [J] !Hourly
777,1,ROOM_88FEF69C..FACE3,Surface Average Face Conduction Heat Transfer Energy [J] !Hourly
778,1,ROOM_88FEF69C..FACE4,Surface Average Face Conduction Heat Transfer Energy [J] !Hourly
779,1,ROOM_88FEF69C..FACE5,Surface Average Face Conduction Heat Transfer Energy [J] !Hourly
780,1,ROOM_88FEF69C..FACE6,Surface Average Face Conduction Heat Transfer Energy [J] !Hourly
781,1,ROOM_88FEF69C..FACE0,Surface Average Face Conduction Heat Transfer Energy [J] !Hourly
782,1,ROOM_88FEF69C..FACE7,Surface Average Face Conduction Heat Transfer Energy [J] !Hourly
783,1,ROOM_A7490DDA..FACE1,Surface Average Face Conduction Heat Transfer Energy [J] !Hourly
784,1,ROOM_A7490DDA..FACE2,Surface Outside Face Solar Radiation Heat Gain Energy [J] !Hourly
785,1,ROOM_A7490DDA..FACE2,Surface Average Face Conduction Heat Transfer Energy [J] !Hourly
786,1,ROOM_A7490DDA..FACE3,Surface Outside Face Solar Radiation Heat Gain Energy [J] !Hourly
787,1,ROOM_A7490DDA..FACE3,Surface Average Face Conduction Heat Transfer Energy [J] !Hourly
788,1,ROOM_A7490DDA..FACE4,Surface Average Face Conduction Heat Transfer Energy [J] !Hourly
789,1,ROOM_A7490DDA..FACE0,Surface Average Face Conduction Heat Transfer Energy [J] !Hourly
790,1,ROOM_A7490DDA..FACE5,Surface Average Face Conduction Heat Transfer Energy [J] !Hourly
791,1,ROOM_B6F4B054..FACE1,Surface Average Face Conduction Heat Transfer Energy [J] !Hourly
792,1,ROOM_B6F4B054..FACE2,Surface Average Face Conduction Heat Transfer Energy [J] !Hourly
793,1,ROOM_B6F4B054..FACE3,Surface Outside Face Solar Radiation Heat Gain Energy [J] !Hourly
794,1,ROOM_B6F4B054..FACE3,Surface Average Face Conduction Heat Transfer Energy [J] !Hourly
795,1,ROOM_B6F4B054..FACE0,Surface Average Face Conduction Heat Transfer Energy [J] !Hourly
796,1,ROOM_B6F4B054..FACE4,Surface Average Face Conduction Heat Transfer Energy [J] !Hourly
797,1,ROOM_BC4FD91B..FACE1,Surface Outside Face Solar Radiation Heat Gain Energy [J] !Hourly
798,1,ROOM_BC4FD91B..FACE1,Surface Average Face Conduction Heat Transfer Energy [J] !Hourly
799,1,ROOM_BC4FD91B..FACE2,Surface Average Face Conduction Heat Transfer Energy [J] !Hourly
800,1,ROOM_BC4FD91B..FACE3,Surface Average Face Conduction Heat Transfer Energy [J] !Hourly
801,1,ROOM_BC4FD91B..FACE4,Surface Outside Face Solar Radiation Heat Gain Energy [J] !Hourly
802,1,ROOM_BC4FD91B..FACE4,Surface Average Face Conduction Heat Transfer Energy [J] !Hourly
803,1,ROOM_BC4FD91B..FACE0,Surface Average Face Conduction Heat Transfer Energy [J] !Hourly
804,1,ROOM_BC4FD91B..FACE5,Surface Average Face Conduction Heat Transfer Energy [J] !Hourly
805,1,ROOM_BC9BC96A..FACE1,Surface Outside Face Solar Radiation Heat Gain Energy [J] !Hourly
806,1,ROOM_BC9BC96A..FACE1,Surface Average Face Conduction Heat Transfer Energy [J] !Hourly
807,1,ROOM_BC9BC96A..FACE2,Surface Average Face Conduction Heat Transfer Energy [J] !Hourly
808,1,ROOM_BC9BC96A..FACE3,Surface Average Face Conduction Heat Transfer Energy [J] !Hourly
809,1,ROOM_BC9BC96A..FACE4,Surface Average Face Conduction Heat Transfer Energy [J] !Hourly
810,1,ROOM_BC9BC96A..FACE5,Surface Average Face Conduction Heat Transfer Energy [J] !Hourly
811,1,ROOM_BC9BC96A..FACE0,Surface Average Face Conduction Heat Transfer Energy [J] !Hourly
812,1,ROOM_BC9BC96A..FACE6,Surface Average Face Conduction Heat Transfer Energy [J] !Hourly
813,1,ROOM_C2BC5DA9..FACE1,Surface Average Face Conduction Heat Transfer Energy [J] !Hourly
814,1,ROOM_C2BC5DA9..FACE2,Surface Average Face Conduction Heat Transfer Energy [J] !Hourly
815,1,ROOM_C2BC5DA9..FACE3,Surface Outside Face Solar Radiation Heat Gain Energy [J] !Hourly
816,1,ROOM_C2BC5DA9..FACE3,Surface Average Face Conduction Heat Transfer Energy [J] !Hourly
817,1,ROOM_C2BC5DA9..FACE4,Surface Outside Face Solar Radiation Heat Gain Energy [J] !Hourly
818,1,ROOM_C2BC5DA9..FACE4,Surface Average Face Conduction Heat Transfer Energy [J] !Hourly
819,1,ROOM_C2BC5DA9..FACE0,Surface Average Face Conduction Heat Transfer Energy [J] !Hourly
820,1,ROOM_C2BC5DA9..FACE5,Surface Average Face Conduction Heat Transfer Energy [J] !Hourly
821,1,ROOM_CB2FE595..FACE1,Surface Average Face Conduction Heat Transfer Energy [J] !Hourly
822,1,ROOM_CB2FE595..FACE2,Surface Average Face Conduction Heat Transfer Energy [J] !Hourly
823,1,ROOM_CB2FE595..FACE3,Surface Average Face Conduction Heat Transfer Energy [J] !Hourly
824,1,ROOM_CB2FE595..FACE4,Surface Average Face Conduction Heat Transfer Energy [J] !Hourly
825,1,ROOM_CB2FE595..FACE5,Surface Average Face Conduction Heat Transfer Energy [J] !Hourly
826,1,ROOM_CB2FE595..FACE6,Surface Average Face Conduction Heat Transfer Energy [J] !Hourly
827,1,ROOM_CB2FE595..FACE0,Surface Average Face Conduction Heat Transfer Energy [J] !Hourly
828,1,ROOM_CB2FE595..FACE7,Surface Average Face Conduction Heat Transfer Energy [J] !Hourly
829,1,ROOM_DADC2C2D..FACE1,Surface Average Face Conduction Heat Transfer Energy [J] !Hourly
830,1,ROOM_DADC2C2D..FACE2,Surface Average Face Conduction Heat Transfer Energy [J] !Hourly
831,1,ROOM_DADC2C2D..FACE3,Surface Average Face Conduction Heat Transfer Energy [J] !Hourly
832,1,ROOM_DADC2C2D..FACE4,Surface Average Face Conduction Heat Transfer Energy [J] !Hourly
833,1,ROOM_DADC2C2D..FACE0,Surface Average Face Conduction Heat Transfer Energy [J] !Hourly
834,1,ROOM_DADC2C2D..FACE5,Surface Average Face Conduction Heat Transfer Energy [J] !Hourly
835,1,ROOM_DD2E7A87..FACE1,Surface Average Face Conduction Heat Transfer Energy [J] !Hourly
836,1,ROOM_DD2E7A87..FACE2,Surface Outside Face Solar Radiation Heat Gain Energy [J] !Hourly
837,1,ROOM_DD2E7A87..FACE2,Surface Average Face Conduction Heat Transfer Energy [J] !Hourly
838,1,ROOM_DD2E7A87..FACE3,Surface Outside Face Solar Radiation Heat Gain Energy [J] !Hourly
839,1,ROOM_DD2E7A87..FACE3,Surface Average Face Conduction Heat Transfer Energy [J] !Hourly
840,1,ROOM_DD2E7A87..FACE4,Surface Average Face Conduction Heat Transfer Energy [J] !Hourly
841,1,ROOM_DD2E7A87..FACE0,Surface Average Face Conduction Heat Transfer Energy [J] !Hourly
842,1,ROOM_DD2E7A87..FACE5,Surface Average Face Conduction Heat Transfer Energy [J] !Hourly
843,1,ROOM_0D36CD4B,Zone Infiltration Total Heat Loss Energy [J] !Hourly
844,1,ROOM_0D36CD4B,Zone Infiltration Total Heat Gain Energy [J] !Hourly
845,1,ROOM_130D23AB,Zone Infiltration Total Heat Loss Energy [J] !Hourly
846,1,ROOM_130D23AB,Zone Infiltration Total Heat Gain Energy [J] !Hourly
847,1,ROOM_2EDBE62A,Zone Infiltration Total Heat Loss Energy [J] !Hourly
848,1,ROOM_2EDBE62A,Zone Infiltration Total Heat Gain Energy [J] !Hourly
849,1,ROOM_2F0F7489,Zone Infiltration Total Heat Loss Energy [J] !Hourly
850,1,ROOM_2F0F7489,Zone Infiltration Total Heat Gain Energy [J] !Hourly
851,1,ROOM_5574C62D,Zone Infiltration Total Heat Loss Energy [J] !Hourly
852,1,ROOM_5574C62D,Zone Infiltration Total Heat Gain Energy [J] !Hourly
853,1,ROOM_5AF7BAD1,Zone Infiltration Total Heat Loss Energy [J] !Hourly
854,1,ROOM_5AF7BAD1,Zone Infiltration Total Heat Gain Energy [J] !Hourly
855,1,ROOM_88FEF69C,Zone Infiltration Total Heat Loss Energy [J] !Hourly
856,1,ROOM_88FEF69C,Zone Infiltration Total Heat Gain Energy [J] !Hourly
857,1,ROOM_A7490DDA,Zone Infiltration Total Heat Loss Energy [J] !Hourly
858,1,ROOM_A7490DDA,Zone Infiltration Total Heat Gain Energy [J] !Hourly
859,1,ROOM_B6F4B054,Zone Infiltration Total Heat Loss Energy [J] !Hourly
860,1,ROOM_B6F4B054,Zone Infiltration Total Heat Gain Energy [J] !Hourly
861,1,ROOM_BC4FD91B,Zone Infiltration Total Heat Loss Energy [J] !Hourly
862,1,ROOM_BC4FD91B,Zone Infiltration Total Heat Gain Energy [J] !Hourly
863,1,ROOM_BC9BC96A,Zone Infiltration Total Heat Loss Energy [J] !Hourly
864,1,ROOM_BC9BC96A,Zone Infiltration Total Heat Gain Energy [J] !Hourly
865,1,ROOM_C2BC5DA9,Zone Infiltration Total Heat Loss Energy [J] !Hourly
866,1,ROOM_C2BC5DA9,Zone Infiltration Total Heat Gain Energy [J] !Hourly
867,1,ROOM_CB2FE595,Zone Infiltration Total Heat Loss Energy [J] !Hourly
868,1,ROOM_CB2FE595,Zone Infiltration Total Heat Gain Energy [J] !Hourly
869,1,ROOM_DADC2C2D,Zone Infiltration Total Heat Loss Energy [J] !Hourly
870,1,ROOM_DADC2C2D,Zone Infiltration Total Heat Gain Energy [J] !Hourly
871,1,ROOM_DD2E7A87,Zone Infiltration Total Heat Loss Energy [J] !Hourly
872,1,ROOM_DD2E7A87,Zone Infiltration Total Heat Gain Energy [J] !Hourly
1662,1,ROOM_0D36CD4B IDEAL LOADS AIR SYSTEM,Zone Ideal Loads Supply Air Total Heating Energy [J] !Hourly
1711,1,ROOM_0D36CD4B IDEAL LOADS AIR SYSTEM,Zone Ideal Loads Supply Air Total Cooling Energy [J] !Hourly
1760,1,ROOM_0D36CD4B IDEAL LOADS AIR SYSTEM,Zone Ideal Loads Zone Total Heating Energy [J] !Hourly
1761,1,ROOM_0D36CD4B IDEAL LOADS AIR SYSTEM,Zone Ideal Loads Zone Total Cooling Energy [J] !Hourly
1762,1,ROOM_130D23AB IDEAL LOADS AIR SYSTEM,Zone Ideal Loads Supply Air Total Heating Energy [J] !Hourly
1763,1,ROOM_130D23AB IDEAL LOADS AIR SYSTEM,Zone Ideal Loads Supply Air Total Cooling Energy [J] !Hourly
1764,1,ROOM_130D23AB IDEAL LOADS AIR SYSTEM,Zone Ideal Loads Zone Total Heating Energy [J] !Hourly
1765,1,ROOM_130D23AB IDEAL LOADS AIR SYSTEM,Zone Ideal Loads Zone Total Cooling Energy [J] !Hourly
1766,1,ROOM_2EDBE62A IDEAL LOADS AIR SYSTEM,Zone Ideal Loads Supply Air Total Heating Energy [J] !Hourly
1767,1,ROOM_2EDBE62A IDEAL LOADS AIR SYSTEM,Zone Ideal Loads Supply Air Total Cooling Energy [J] !Hourly
1768,1,ROOM_2EDBE62A IDEAL LOADS AIR SYSTEM,Zone Ideal Loads Zone Total Heating Energy [J] !Hourly
1769,1,ROOM_2EDBE62A IDEAL LOADS AIR SYSTEM,Zone Ideal Loads Zone Total Cooling Energy [J] !Hourly
1770,1,ROOM_2F0F7489 IDEAL LOADS AIR SYSTEM,Zone Ideal Loads Supply Air Total Heating Energy [J] !Hourly
1771,1,ROOM_2F0F7489 IDEAL LOADS AIR SYSTEM,Zone Ideal Loads Supply Air Total Cooling Energy [J] !Hourly
1772,1,ROOM_2F0F7489 IDEAL LOADS AIR SYSTEM,Zone Ideal Loads Zone Total Heating Energy [J] !Hourly
1773,1,ROOM_2F0F7489 IDEAL LOADS AIR SYSTEM,Zone Ideal Loads Zone Total Cooling Energy [J] !Hourly
1774,1,ROOM_5574C62D IDEAL LOADS AIR SYSTEM,Zone Ideal Loads Supply Air Total Heating Energy [J] !Hourly
1775,1,ROOM_5574C62D IDEAL LOADS AIR SYSTEM,Zone Ideal Loads Supply Air Total Cooling Energy [J] !Hourly
1776,1,ROOM_5574C62D IDEAL LOADS AIR SYSTEM,Zone Ideal Loads Zone Total Heating Energy [J] !Hourly
1777,1,ROOM_5574C62D IDEAL LOADS AIR SYSTEM,Zone Ideal Loads Zone Total Cooling Energy [J] !Hourly
1778,1,ROOM_5AF7BAD1 IDEAL LOADS AIR SYSTEM,Zone Ideal Loads Supply Air Total Heating Energy [J] !Hourly
1779,1,ROOM_5AF7BAD1 IDEAL LOADS AIR SYSTEM,Zone Ideal Loads Supply Air Total Cooling Energy [J] !Hourly
1780,1,ROOM_5AF7BAD1 IDEAL LOADS AIR SYSTEM,Zone Ideal Loads Zone Total Heating Energy [J] !Hourly
1781,1,ROOM_5AF7BAD1 IDEAL LOADS AIR SYSTEM,Zone Ideal Loads Zone Total Cooling Energy [J] !Hourly
1782,1,ROOM_88FEF69C IDEAL LOADS AIR SYSTEM,Zone Ideal Loads Supply Air Total Heating Energy [J] !Hourly
1783,1,ROOM_88FEF69C IDEAL LOADS AIR SYSTEM,Zone Ideal Loads Supply Air Total Cooling Energy [J] !Hourly
1784,1,ROOM_88FEF69C IDEAL LOADS AIR SYSTEM,Zone Ideal Loads Zone Total Heating Energy [J] !Hourly
1785,1,ROOM_88FEF69C IDEAL LOADS AIR SYSTEM,Zone Ideal Loads Zone Total Cooling Energy [J] !Hourly
1786,1,ROOM_A7490DDA IDEAL LOADS AIR SYSTEM,Zone Ideal Loads Supply Air Total Heating Energy [J] !Hourly
1787,1,ROOM_A7490DDA IDEAL LOADS AIR SYSTEM,Zone Ideal Loads Supply Air Total Cooling Energy [J] !Hourly
1788,1,ROOM_A7490DDA IDEAL LOADS AIR SYSTEM,Zone Ideal Loads Zone Total Heating Energy [J] !Hourly
1789,1,ROOM_A7490DDA IDEAL LOADS AIR SYSTEM,Zone Ideal Loads Zone Total Cooling Energy [J] !Hourly
1790,1,ROOM_B6F4B054 IDEAL LOADS AIR SYSTEM,Zone Ideal Loads Supply Air Total Heating Energy [J] !Hourly
1791,1,ROOM_B6F4B054 IDEAL LOADS AIR SYSTEM,Zone Ideal Loads Supply Air Total Cooling Energy [J] !Hourly
1792,1,ROOM_B6F4B054 IDEAL LOADS AIR SYSTEM,Zone Ideal Loads Zone Total Heating Energy [J] !Hourly
1793,1,ROOM_B6F4B054 IDEAL LOADS AIR SYSTEM,Zone Ideal Loads Zone Total Cooling Energy [J] !Hourly
1794,1,ROOM_BC4FD91B IDEAL LOADS AIR SYSTEM,Zone Ideal Loads Supply Air Total Heating Energy [J] !Hourly
1795,1,ROOM_BC4FD91B IDEAL LOADS AIR SYSTEM,Zone Ideal Loads Supply Air Total Cooling Energy [J] !Hourly
1796,1,ROOM_BC4FD91B IDEAL LOADS AIR SYSTEM,Zone Ideal Loads Zone Total Heating Energy [J] !Hourly
1797,1,ROOM_BC4FD91B IDEAL LOADS AIR SYSTEM,Zone Ideal Loads Zone Total Cooling Energy [J] !Hourly
1798,1,ROOM_BC9BC96A IDEAL LOADS AIR SYSTEM,Zone Ideal Loads Supply Air Total Heating Energy [J] !Hourly
1799,1,ROOM_BC9BC96A IDEAL LOADS AIR SYSTEM,Zone Ideal Loads Supply Air Total Cooling Energy [J] !Hourly
1800,1,ROOM_BC9BC96A IDEAL LOADS AIR SYSTEM,Zone Ideal Loads Zone Total Heating Energy [J] !Hourly
1801,1,ROOM_BC9BC96A IDEAL LOADS AIR SYSTEM,Zone Ideal Loads Zone Total Cooling Energy [J] !Hourly
1802,1,ROOM_C2BC5DA9 IDEAL LOADS AIR SYSTEM,Zone Ideal Loads Supply Air Total Heating Energy [J] !Hourly
1803,1,ROOM_C2BC5DA9 IDEAL LOADS AIR SYSTEM,Zone Ideal Loads Supply Air Total Cooling Energy [J] !Hourly
1804,1,ROOM_C2BC5DA9 IDEAL LOADS AIR SYSTEM,Zone Ideal Loads Zone Total Heating Energy [J] !Hourly
1805,1,ROOM_C2BC5DA9 IDEAL LOADS AIR SYSTEM,Zone Ideal Loads Zone Total Cooling Energy [J] !Hourly
1806,1,ROOM_CB2FE595 IDEAL LOADS AIR SYSTEM,Zone Ideal Loads Supply Air Total Heating Energy [J] !Hourly
1807,1,ROOM_CB2FE595 IDEAL LOADS AIR SYSTEM,Zone Ideal Loads Supply Air Total Cooling Energy [J] !Hourly
1808,1,ROOM_CB2FE595 IDEAL LOADS AIR SYSTEM,Zone Ideal Loads Zone Total Heating Energy [J] !Hourly
1809,1,ROOM_CB2FE595 IDEAL LOADS AIR SYSTEM,Zone Ideal Loads Zone Total Cooling Energy [J] !Hourly
1810,1,ROOM_DADC2C2D IDEAL LOADS AIR SYSTEM,Zone Ideal Loads Supply Air Total Heating Energy [J] !Hourly
1811,1,ROOM_DADC2C2D IDEAL LOADS AIR SYSTEM,Zone Ideal Loads Supply Air Total Cooling Energy [J] !Hourly
1812,1,ROOM_DADC2C2D IDEAL LOADS AIR SYSTEM,Zone Ideal Loads Zone Total Heating Energy [J] !Hourly
1813,1,ROOM_DADC2C2D IDEAL LOADS AIR SYSTEM,Zone Ideal Loads Zone Total Cooling Energy [J] !Hourly
1814,1,ROOM_DD2E7A87 IDEAL LOADS AIR SYSTEM,Zone Ideal Loads Supply Air Total Heating Energy [J] !Hourly
1815,1,ROOM_DD2E7A87 IDEAL LOADS AIR SYSTEM,Zone Ideal Loads Supply Air Total Cooling Energy [J] !Hourly
1816,1,ROOM_DD2E7A87 IDEAL LOADS AIR SYSTEM,Zone Ideal Loads Zone Total Heating Energy [J] !Hourly
1817,1,ROOM_DD2E7A87 IDEAL LOADS AIR SYSTEM,Zone Ideal Loads Zone Total Cooling Energy [J] !Hourly
End of Data Dictionary
1,RUN PERIOD 1,  42.37, -71.02,  -5.00,   6.00
2,1, 1, 1, 0, 1, 0.00,60.00,Sunday
7,0.0
8,0.0
9,0.0
10,0.0
11,0.0
12,0.0
13,0.0
14,0.0
15,0.0
16,0.0
17,0.0
18,0.0
19,0.0
20,0.0
21,0.0
664,0.0
665,0.0
666,0.0
667,0.0
668,0.0
669,0.0
670,0.0
671,0.0
672,0.0
673,0.0
674,0.0
675,0.0
676,0.0
677,0.0
678,0.0
679,0.0
680,363169.3816017812
681,0.0
682,163033.924568045
683,0.0
684,195428.00354335478
685,0.0
686,365475.5315279557
687,0.0
688,245124.279662713
689,0.0
690,256069.39357753157
691,0.0
692,160039.45776190217
693,0.0
694,224954.55098962363
695,0.0
696,142821.0838984622
697,0.0
698,365814.79913435838
699,0.0
700,134910.64822784949
701,0.0
702,149043.54500837855
703,0.0
704,119362.7615676607
705,0.0
706,96843.79883518629
707,0.0
708,257274.8430260119
709,0.0
710,282405.5720940231
711,0.0
712,408131.03544403929
713,0.0
714,187182.5790922688
715,0.0
716,137580.55035407455
717,0.0
718,469358.35938348018
719,0.0
720,423836.82238568356
721,14095.618498577105
722,19498.92743109241
723,-15295.592747168695
724,0.0
725,-161066.723031734
726,0.0
727,-90310.58925583515
728,-5965.208371689438
729,8374.481120770459
730,59436.28753383522
731,8398.165836081867
732,20580.158903292784
733,4521.470418311521
734,0.0
735,-84219.54400203476
736,-7385.762754408682
737,13002.544358916555
738,1610.1268733848136
739,0.0
740,-665224.0437216578
741,-6403.976469919016
742,-2989.588619799102
743,-6305.548489028016
744,-12308.40675793801
745,278596.7668980707
746,45590.75838138231
747,21041.7363421981
748,7442.173292557013
749,4868.172259427166
750,0.0
751,-109659.00527359484
752,0.0
753,-244197.20619902033
754,78215.17571666074
755,7864.293804598034
756,0.0
757,-149466.42758227033
758,11230.440103040943
759,9042.798752900468
760,-20506.78896971199
761,48599.14214681751
762,8826.912835156829
763,2031.1709432590142
764,15973.025951563108
765,0.0
766,-413806.34988461728
767,0.0
768,-105695.10533052178
769,4862.407225276935
770,-16631.969984841857
771,182715.0294726406
772,29536.847764515256
773,0.0
774,-687423.1462971617
775,0.0
776,-96116.46285438836
777,-15425.688756610505
778,-22962.47930454045
779,-4613.559928739049
780,12775.092717860702
781,228931.76011864295
782,33480.6055448752
783,16756.471831102303
784,0.0
785,-104336.58444358609
786,0.0
787,-52217.67894289597
788,117.67268766664154
789,24478.157774545864
790,2544.3333371566047
791,22675.863634257617
792,5029.41542181009
793,0.0
794,-41556.8062216035
795,1735.896425400246
796,294.48965026916826
797,0.0
798,-476883.00523433307
799,23081.481576884813
800,-3660.846855419514
801,0.0
802,-268803.5166439889
803,237088.74051584785
804,36547.12909330365
805,0.0
806,-680844.9802189738
807,-6471.460043541562
808,-22121.440413977078
809,-44885.92252271506
810,4031.924316610672
811,280574.783571759
812,44590.56883836188
813,25191.267681129768
814,-3594.1060103111315
815,0.0
816,-80198.6746021373
817,0.0
818,-62735.34132265496
819,22522.57332269245
820,3101.039196659074
821,11995.624882798687
822,1982.1574457858158
823,-7584.00194819796
824,-19982.126496757475
825,-7281.678039515428
826,-6149.074991635988
827,14284.95461486249
828,4316.35763727311
829,7577.142973537018
830,554.3366258667834
831,-12815.311562585563
832,-14.897863503215394
833,9600.175540523443
834,2625.1206368363825
835,51814.055195875364
836,0.0
837,-274625.0480095764
838,0.0
839,-188483.60622574617
840,11298.0573796738
841,110368.22245067096
842,13574.234995009732
843,329960.66069389789
844,0.0
845,123723.7888118441
846,0.0
847,214683.45357660025
848,0.0
849,319702.99537346549
850,0.0
851,97467.71457115868
852,0.0
853,222918.05494160154
854,0.0
855,309504.61677111269
856,0.0
857,177214.63051248587
858,0.0
859,71312.3983420496
860,0.0
861,327647.5845190769
862,0.0
863,243902.56259346385
864,0.0
865,222984.18493260159
866,0.0
867,0.0
868,0.0
869,0.0
870,0.0