Program Version,EnergyPlus, Version 9.3.0-baff08990c, YMD=2021.04.24 21:16
1,5,Environment Title[],Latitude[deg],Longitude[deg],Time Zone[],Elevation[m]
2,8,Day of Simulation[],Month[],Day of Month[],DST Indicator[1=yes 0=no],Hour[],StartMinute[],EndMinute[],DayType
3,5,Cumulative Day of Simulation[],Month[],Day of Month[],DST Indicator[1=yes 0=no],DayType  ! When Daily Report Variables Requested
4,2,Cumulative Days of Simulation[],Month[]  ! When Monthly Report Variables Requested
5,1,Cumulative Days of Simulation[] ! When Run Period Report Variables Requested
6,1,Calendar Year of Simulation[] ! When Annual Report Variables Requested
7,1,ROOM_23F1C225,Zone People Total Heating Energy [J] !Hourly
8,1,ROOM_2F7AE989,Zone People Total Heating Energy [J] !Hourly
9,1,ROOM_4E85EE91,Zone People Total Heating Energy [J] !Hourly
10,1,ROOM_60F2EDB3,Zone People Total Heating Energy [J] !Hourly
11,1,ROOM_956F0B03,Zone People Total Heating Energy [J] !Hourly
12,1,ROOM_D73A2775,Zone People Total Heating Energy [J] !Hourly
13,1,ROOM_E4E9384E,Zone People Total Heating Energy [J] !Hourly
14,1,ROOM_E681BE48,Zone People Total Heating Energy [J] !Hourly
15,1,ROOM_FFC704B2,Zone People Total Heating Energy [J] !Hourly
430,1,ROOM_23F1C225,Zone Windows Total Transmitted Solar Radiation Energy [J] !Hourly
431,1,ROOM_2F7AE989,Zone Windows Total Transmitted Solar Radiation Energy [J] !Hourly
432,1,ROOM_4E85EE91,Zone Windows Total Transmitted Solar Radiation Energy [J] !Hourly
433,1,ROOM_60F2EDB3,Zone Windows Total Transmitted Solar Radiation Energy [J] !Hourly
434,1,ROOM_956F0B03,Zone Windows Total Transmitted Solar Radiation Energy [J] !Hourly
435,1,ROOM_D73A2775,Zone Windows Total Transmitted Solar Radiation Energy [J] !Hourly
436,1,ROOM_E4E9384E,Zone Windows Total Transmitted Solar Radiation Energy [J] !Hourly
437,1,ROOM_E681BE48,Zone Windows Total Transmitted Solar Radiation Energy [J] !Hourly
438,1,ROOM_FFC704B2,Zone Windows Total Transmitted Solar Radiation Energy [J] !Hourly
439,1,ROOM_23F1C225..FACE1_GLZ1,Surface Window Heat Gain Energy [J] !Hourly
440,1,ROOM_23F1C225..FACE1_GLZ1,Surface Window Heat Loss Energy [J] !Hourly
441,1,ROOM_23F1C225..FACE2_GLZ1,Surface Window Heat Gain Energy [J] !Hourly
442,1,ROOM_23F1C225..FACE2_GLZ1,Surface Window Heat Loss Energy [J] !Hourly
443,1,ROOM_23F1C225..FACE3_GLZ1,Surface Window Heat Gain Energy [J] !Hourly
444,1,ROOM_23F1C225..FACE3_GLZ1,Surface Window Heat Loss Energy [J] !Hourly
445,1,ROOM_2F7AE989..FACE1_GLZ1,Surface Window Heat Gain Energy [J] !Hourly
446,1,ROOM_2F7AE989..FACE1_GLZ1,Surface Window Heat Loss Energy [J] !Hourly
447,1,ROOM_2F7AE989..FACE2_GLZ1,Surface Window Heat Gain Energy [J] !Hourly
448,1,ROOM_2F7AE989..FACE2_GLZ1,Surface Window Heat Loss Energy [J] !Hourly
449,1,ROOM_4E85EE91..FACE1_GLZ1,Surface Window Heat Gain Energy [J] !Hourly
450,1,ROOM_4E85EE91..FACE1_GLZ1,Surface Window Heat Loss Energy [J] !Hourly
451,1,ROOM_4E85EE91..FACE3_GLZ1,Surface Window Heat Gain Energy [J] !Hourly
452,1,ROOM_4E85EE91..FACE3_GLZ1,Surface Window Heat Loss Energy [J] !Hourly
453,1,ROOM_4E85EE91..FACE5_GLZ1,Surface Window Heat Gain Energy [J] !Hourly
454,1,ROOM_4E85EE91..FACE5_GLZ1,Surface Window Heat Loss Energy [J] !Hourly
455,1,ROOM_60F2EDB3..FACE3_GLZ1,Surface Window Heat Gain Energy [J] !Hourly
456,1,ROOM_60F2EDB3..FACE3_GLZ1,Surface Window Heat Loss Energy [J] !Hourly
457,1,ROOM_60F2EDB3..FACE4_GLZ1,Surface Window Heat Gain Energy [J] !Hourly
458,1,ROOM_60F2EDB3..FACE4_GLZ1,Surface Window Heat Loss Energy [J] !Hourly
459,1,ROOM_60F2EDB3..FACE5_GLZ1,Surface Window Heat Gain Energy [J] !Hourly
460,1,ROOM_60F2EDB3..FACE5_GLZ1,Surface Window Heat Loss Energy [J] !Hourly
461,1,ROOM_956F0B03..FACE2_GLZ1,Surface Window Heat Gain Energy [J] !Hourly
462,1,ROOM_956F0B03..FACE2_GLZ1,Surface Window Heat Loss Energy [J] !Hourly
463,1,ROOM_956F0B03..FACE3_GLZ1,Surface Window Heat Gain Energy [J] !Hourly
464,1,ROOM_956F0B03..FACE3_GLZ1,Surface Window Heat Loss Energy [J] !Hourly
465,1,ROOM_D73A2775..FACE2_GLZ1,Surface Window Heat Gain Energy [J] !Hourly
466,1,ROOM_D73A2775..FACE2_GLZ1,Surface Window Heat Loss Energy [J] !Hourly
467,1,ROOM_E4E9384E..FACE2_GLZ1,Surface Window Heat Gain Energy [J] !Hourly
468,1,ROOM_E4E9384E..FACE2_GLZ1,Surface Window Heat Loss Energy [J] !Hourly
469,1,ROOM_E4E9384E..FACE4_GLZ1,Surface Window Heat Gain Energy [J] !Hourly
470,1,ROOM_E4E9384E..FACE4_GLZ1,Surface Window Heat Loss Energy [J] !Hourly
471,1,ROOM_E4E9384E..FACE5_GLZ1,Surface Window Heat Gain Energy [J] !Hourly
472,1,ROOM_E4E9384E..FACE5_GLZ1,Surface Window Heat Loss Energy [J] !Hourly
473,1,ROOM_E681BE48..FACE3_GLZ1,Surface Window Heat Gain Energy [J] !Hourly
474,1,ROOM_E681BE48..FACE3_GLZ1,Surface Window Heat Loss Energy [J] !Hourly
475,1,ROOM_E681BE48..FACE4_GLZ1,Surface Window Heat Gain Energy [J] !Hourly
476,1,ROOM_E681BE48..FACE4_GLZ1,Surface Window Heat Loss Energy [J] !Hourly
477,1,ROOM_FFC704B2..FACE1_GLZ1,Surface Window Heat Gain Energy [J] !Hourly
478,1,ROOM_FFC704B2..FACE1_GLZ1,Surface Window Heat Loss Energy [J] !Hourly
479,1,ROOM_FFC704B2..FACE6_GLZ1,Surface Window Heat Gain Energy [J] !Hourly
480,1,ROOM_FFC704B2..FACE6_GLZ1,Surface Window Heat Loss Energy [J] !Hourly
481,1,ROOM_23F1C225..FACE1,Surface Outside Face Solar Radiation Heat Gain Energy [J] !Hourly
482,1,ROOM_23F1C225..FACE1,Surface Average Face Conduction Heat Transfer Energy [J] !Hourly
483,1,ROOM_23F1C225..FACE2,Surface Outside Face Solar Radiation Heat Gain Energy [J] !Hourly
484,1,ROOM_23F1C225..FACE2,Surface Average Face Conduction Heat Transfer Energy [J] !Hourly
485,1,ROOM_23F1C225..FACE3,Surface Outside Face Solar Radiation Heat Gain Energy [J] !Hourly
486,1,ROOM_23F1C225..FACE3,Surface Average Face Conduction Heat Transfer Energy [J] !Hourly
487,1,ROOM_23F1C225..FACE4,Surface Average Face Conduction Heat Transfer Energy [J] !Hourly
488,1,ROOM_23F1C225..FACE0,Surface Average Face Conduction Heat Transfer Energy [J] !Hourly
489,1,ROOM_23F1C225..FACE5,Surface Average Face Conduction Heat Transfer Energy [J] !Hourly
490,1,ROOM_2F7AE989..FACE1,Surface Outside Face Solar Radiation Heat Gain Energy [J] !Hourly
491,1,ROOM_2F7AE989..FACE1,Surface Average Face Conduction Heat Transfer Energy [J] !Hourly
492,1,ROOM_2F7AE989..FACE2,Surface Outside Face Solar Radiation Heat Gain Energy [J] !Hourly
493,1,ROOM_2F7AE989..FACE2,Surface Average Face Conduction Heat Transfer Energy [J] !Hourly
494,1,ROOM_2F7AE989..FACE3,Surface Average Face Conduction Heat Transfer Energy [J] !Hourly
495,1,ROOM_2F7AE989..FACE4,Surface Average Face Conduction Heat Transfer Energy [J] !Hourly
496,1,ROOM_2F7AE989..FACE0,Surface Average Face Conduction Heat Transfer Energy [J] !Hourly
497,1,ROOM_2F7AE989..FACE5,Surface Average Face Conduction Heat Transfer Energy [J] !Hourly
498,1,ROOM_4E85EE91..FACE1,Surface Outside Face Solar Radiation Heat Gain Energy [J] !Hourly
499,1,ROOM_4E85EE91..FACE1,Surface Average Face Conduction Heat Transfer Energy [J] !Hourly
500,1,ROOM_4E85EE91..FACE2,Surface Average Face Conduction Heat Transfer Energy [J] !Hourly
501,1,ROOM_4E85EE91..FACE3,Surface Outside Face Solar Radiation Heat Gain Energy [J] !Hourly
502,1,ROOM_4E85EE91..FACE3,Surface Average Face Conduction Heat Transfer Energy [J] !Hourly
503,1,ROOM_4E85EE91..FACE4,Surface Average Face Conduction Heat Transfer Energy [J] !Hourly
504,1,ROOM_4E85EE91..FACE5,Surface Outside Face Solar Radiation Heat Gain Energy [J] !Hourly
505,1,ROOM_4E85EE91..FACE5,Surface Average Face Conduction Heat Transfer Energy [J] !Hourly
506,1,ROOM_4E85EE91..FACE0,Surface Average Face Conduction Heat Transfer Energy [J] !Hourly
507,1,ROOM_4E85EE91..FACE6,Surface Average Face Conduction Heat Transfer Energy [J] !Hourly
508,1,ROOM_60F2EDB3..FACE1,Surface Average Face Conduction Heat Transfer Energy [J] !Hourly
509,1,ROOM_60F2EDB3..FACE2,Surface Average Face Conduction Heat Transfer Energy [J] !Hourly
510,1,ROOM_60F2EDB3..FACE3,Surface Outside Face Solar Radiation Heat Gain Energy [J] !Hourly
511,1,ROOM_60F2EDB3..FACE3,Surface Average Face Conduction Heat Transfer Energy [J] !Hourly
512,1,ROOM_60F2EDB3..FACE4,Surface Outside Face Solar Radiation Heat Gain Energy [J] !Hourly
513,1,ROOM_60F2EDB3..FACE4,Surface Average Face Conduction Heat Transfer Energy [J] !Hourly
514,1,ROOM_60F2EDB3..FACE5,Surface Outside Face Solar Radiation Heat Gain Energy [J] !Hourly
515,1,ROOM_60F2EDB3..FACE5,Surface Average Face Conduction Heat Transfer Energy [J] !Hourly
516,1,ROOM_60F2EDB3..FACE0,Surface Average Face Conduction Heat Transfer Energy [J] !Hourly
517,1,ROOM_60F2EDB3..FACE6,Surface Average Face Conduction Heat Transfer Energy [J] !Hourly
518,1,ROOM_956F0B03..FACE1,Surface Average Face Conduction Heat Transfer Energy [J] !Hourly
519,1,ROOM_956F0B03..FACE2,Surface Outside Face Solar Radiation Heat Gain Energy [J] !Hourly
520,1,ROOM_956F0B03..FACE2,Surface Average Face Conduction Heat Transfer Energy [J] !Hourly
521,1,ROOM_956F0B03..FACE3,Surface Outside Face Solar Radiation Heat Gain Energy [J] !Hourly
522,1,ROOM_956F0B03..FACE3,Surface Average Face Conduction Heat Transfer Energy [J] !Hourly
523,1,ROOM_956F0B03..FACE4,Surface Average Face Conduction Heat Transfer Energy [J] !Hourly
524,1,ROOM_956F0B03..FACE0,Surface Average Face Conduction Heat Transfer Energy [J] !Hourly
525,1,ROOM_956F0B03..FACE5,Surface Average Face Conduction Heat Transfer Energy [J] !Hourly
526,1,ROOM_D73A2775..FACE1,Surface Average Face Conduction Heat Transfer Energy [J] !Hourly
527,1,ROOM_D73A2775..FACE2,Surface Outside Face Solar Radiation Heat Gain Energy [J] !Hourly
528,1,ROOM_D73A2775..FACE2,Surface Average Face Conduction Heat Transfer Energy [J] !Hourly
529,1,ROOM_D73A2775..FACE3,Surface Average Face Conduction Heat Transfer Energy [J] !Hourly
530,1,ROOM_D73A2775..FACE4,Surface Average Face Conduction Heat Transfer Energy [J] !Hourly
531,1,ROOM_D73A2775..FACE0,Surface Average Face Conduction Heat Transfer Energy [J] !Hourly
532,1,ROOM_D73A2775..FACE5,Surface Average Face Conduction Heat Transfer Energy [J] !Hourly
533,1,ROOM_E4E9384E..FACE1,Surface Average Face Conduction Heat Transfer Energy [J] !Hourly
534,1,ROOM_E4E9384E..FACE2,Surface Outside Face Solar Radiation Heat Gain Energy [J] !Hourly
535,1,ROOM_E4E9384E..FACE2,Surface Average Face Conduction Heat Transfer Energy [J] !Hourly
536,1,ROOM_E4E9384E..FACE3,Surface Average Face Conduction Heat Transfer Energy [J] !Hourly
537,1,ROOM_E4E9384E..FACE4,Surface Outside Face Solar Radiation Heat Gain Energy [J] !Hourly
538,1,ROOM_E4E9384E..FACE4,Surface Average Face Conduction Heat Transfer Energy [J] !Hourly
539,1,ROOM_E4E9384E..FACE5,Surface Outside Face Solar Radiation Heat Gain Energy [J] !Hourly
540,1,ROOM_E4E9384E..FACE5,Surface Average Face Conduction Heat Transfer Energy [J] !Hourly
541,1,ROOM_E4E9384E..FACE0,Surface Average Face Conduction Heat Transfer Energy [J] !Hourly
542,1,ROOM_E4E9384E..FACE6,Surface Average Face Conduction Heat Transfer Energy [J] !Hourly
543,1,ROOM_E681BE48..FACE1,Surface Average Face Conduction Heat Transfer Energy [J] !Hourly
544,1,ROOM_E681BE48..FACE2,Surface Average Face Conduction Heat Transfer Energy [J] !Hourly
545,1,ROOM_E681BE48..FACE3,Surface Outside Face Solar Radiation Heat Gain Energy [J] !Hourly
546,1,ROOM_E681BE48..FACE3,Surface Average Face Conduction Heat Transfer Energy [J] !Hourly
547,1,ROOM_E681BE48..FACE4,Surface Outside Face Solar Radiation Heat Gain Energy [J] !Hourly
548,1,ROOM_E681BE48..FACE4,Surface Average Face Conduction Heat Transfer Energy [J] !Hourly
549,1,ROOM_E681BE48..FACE5,Surface Average Face Conduction Heat Transfer Energy [J] !Hourly
550,1,ROOM_E681BE48..FACE0,Surface Average Face Conduction Heat Transfer Energy [J] !Hourly
551,1,ROOM_E681BE48..FACE6,Surface Average Face Conduction Heat Transfer Energy [J] !Hourly
552,1,ROOM_FFC704B2..FACE1,Surface Outside Face Solar Radiation Heat Gain Energy [J] !Hourly
553,1,ROOM_FFC704B2..FACE1,Surface Average Face Conduction Heat Transfer Energy [J] !Hourly
554,1,ROOM_FFC704B2..FACE2,Surface Average Face Conduction Heat Transfer Energy [J] !Hourly
555,1,ROOM_FFC704B2..FACE3,Surface Average Face Conduction Heat Transfer Energy [J] !Hourly
556,1,ROOM_FFC704B2..FACE4,Surface Average Face Conduction Heat Transfer Energy [J] !Hourly
557,1,ROOM_FFC704B2..FACE5,Surface Average Face Conduction Heat Transfer Energy [J] !Hourly
558,1,ROOM_FFC704B2..FACE6,Surface Outside Face Solar Radiation Heat Gain Energy [J] !Hourly
559,1,ROOM_FFC704B2..FACE6,Surface Average Face Conduction Heat Transfer Energy [J] !Hourly
560,1,ROOM_FFC704B2..FACE7,Surface Average Face Conduction Heat Transfer Energy [J] !Hourly
561,1,ROOM_FFC704B2..FACE0,Surface Average Face Conduction Heat Transfer Energy [J] !Hourly
562,1,ROOM_FFC704B2..FACE8,Surface Average Face Conduction Heat Transfer Energy [J] !Hourly
563,1,ROOM_23F1C225,Zone Infiltration Total Heat Loss Energy [J] !Hourly
564,1,ROOM_23F1C225,Zone Infiltration Total Heat Gain Energy [J] !Hourly
565,1,ROOM_2F7AE989,Zone Infiltration Total Heat Loss Energy [J] !Hourly
566,1,ROOM_2F7AE989,Zone Infiltration Total Heat Gain Energy [J] !Hourly
567,1,ROOM_4E85EE91,Zone Infiltration Total Heat Loss Energy [J] !Hourly
568,1,ROOM_4E85EE91,Zone Infiltration Total Heat Gain Energy [J] !Hourly
569,1,ROOM_60F2EDB3,Zone Infiltration Total Heat Loss Energy [J] !Hourly
570,1,ROOM_60F2EDB3,Zone Infiltration Total Heat Gain Energy [J] !Hourly
571,1,ROOM_956F0B03,Zone Infiltration Total Heat Loss Energy [J] !Hourly
572,1,ROOM_956F0B03,Zone Infiltration Total Heat Gain Energy [J] !Hourly
573,1,ROOM_D73A2775,Zone Infiltration Total Heat Loss Energy [J] !Hourly
574,1,ROOM_D73A2775,Zone Infiltration Total Heat Gain Energy [J] !Hourly
575,1,ROOM_E4E9384E,Zone Infiltration Total Heat Loss Energy [J] !Hourly
576,1,ROOM_E4E9384E,Zone Infiltration Total Heat Gain Energy [J] !Hourly
577,1,ROOM_E681BE48,Zone Infiltration Total Heat Loss Energy [J] !Hourly
578,1,ROOM_E681BE48,Zone Infiltration Total Heat Gain Energy [J] !Hourly
579,1,ROOM_FFC704B2,Zone Infiltration Total Heat Loss Energy [J] !Hourly
580,1,ROOM_FFC704B2,Zone Infiltration Total Heat Gain Energy [J] !Hourly
1142,1,ROOM_23F1C225 IDEAL LOADS AIR SYSTEM,Zone Ideal Loads Supply Air Total Heating Energy [J] !Hourly
1191,1,ROOM_23F1C225 IDEAL LOADS AIR SYSTEM,Zone Ideal Loads Supply Air Total Cooling Energy [J] !Hourly
1240,1,ROOM_23F1C225 IDEAL LOADS AIR SYSTEM,Zone Ideal Loads Zone Total Heating Energy [J] !Hourly
1241,1,ROOM_23F1C225 IDEAL LOADS AIR SYSTEM,Zone Ideal Loads Zone Total Cooling Energy [J] !Hourly
1242,1,ROOM_2F7AE989 IDEAL LOADS AIR SYSTEM,Zone Ideal Loads Supply Air Total Heating Energy [J] !Hourly
1243,1,ROOM_2F7AE989 IDEAL LOADS AIR SYSTEM,Zone Ideal Loads Supply Air Total Cooling Energy [J] !Hourly
1244,1,ROOM_2F7AE989 IDEAL LOADS AIR SYSTEM,Zone Ideal Loads Zone Total Heating Energy [J] !Hourly
1245,1,ROOM_2F7AE989 IDEAL LOADS AIR SYSTEM,Zone Ideal Loads Zone Total Cooling Energy [J] !Hourly
1246,1,ROOM_4E85EE91 IDEAL LOADS AIR SYSTEM,Zone Ideal Loads Supply Air Total Heating Energy [J] !Hourly
1247,1,ROOM_4E85EE91 IDEAL LOADS AIR SYSTEM,Zone Ideal Loads Supply Air Total Cooling Energy [J] !Hourly
1248,1,ROOM_4E85EE91 IDEAL LOADS AIR SYSTEM,Zone Ideal Loads Zone Total Heating Energy [J] !Hourly
1249,1,ROOM_4E85EE91 IDEAL LOADS AIR SYSTEM,Zone Ideal Loads Zone Total Cooling Energy [J] !Hourly
1250,1,ROOM_60F2EDB3 IDEAL LOADS AIR SYSTEM,Zone Ideal Loads Supply Air Total Heating Energy [J] !Hourly
1251,1,ROOM_60F2EDB3 IDEAL LOADS AIR SYSTEM,Zone Ideal Loads Supply Air Total Cooling Energy [J] !Hourly
1252,1,ROOM_60F2EDB3 IDEAL LOADS AIR SYSTEM,Zone Ideal Loads Zone Total Heating Energy [J] !Hourly
1253,1,ROOM_60F2EDB3 IDEAL LOADS AIR SYSTEM,Zone Ideal Loads Zone Total Cooling Energy [J] !Hourly
1254,1,ROOM_956F0B03 IDEAL LOADS AIR SYSTEM,Zone Ideal Loads Supply Air Total Heating Energy [J] !Hourly
1255,1,ROOM_956F0B03 IDEAL LOADS AIR SYSTEM,Zone Ideal Loads Supply Air Total Cooling Energy [J] !Hourly
1256,1,ROOM_956F0B03 IDEAL LOADS AIR SYSTEM,Zone Ideal Loads Zone Total Heating Energy [J] !Hourly
1257,1,ROOM_956F0B03 IDEAL LOADS AIR SYSTEM,Zone Ideal Loads Zone Total Cooling Energy [J] !Hourly
1258,1,ROOM_D73A2775 IDEAL LOADS AIR SYSTEM,Zone Ideal Loads Supply Air Total Heating Energy [J] !Hourly
1259,1,ROOM_D73A2775 IDEAL LOADS AIR SYSTEM,Zone Ideal Loads Supply Air Total Cooling Energy [J] !Hourly
1260,1,ROOM_D73A2775 IDEAL LOADS AIR SYSTEM,Zone Ideal Loads Zone Total Heating Energy [J] !Hourly
1261,1,ROOM_D73A2775 IDEAL LOADS AIR SYSTEM,Zone Ideal Loads Zone Total Cooling Energy [J] !Hourly
1262,1,ROOM_E4E9384E IDEAL LOADS AIR SYSTEM,Zone Ideal Loads Supply Air Total Heating Energy [J] !Hourly
1263,1,ROOM_E4E9384E IDEAL LOADS AIR SYSTEM,Zone Ideal Loads Supply Air Total Cooling Energy [J] !Hourly
1264,1,ROOM_E4E9384E IDEAL LOADS AIR SYSTEM,Zone Ideal Loads Zone Total Heating Energy [J] !Hourly
1265,1,ROOM_E4E9384E IDEAL LOADS AIR SYSTEM,Zone Ideal Loads Zone Total Cooling Energy [J] !Hourly
1266,1,ROOM_E681BE48 IDEAL LOADS AIR SYSTEM,Zone Ideal Loads Supply Air Total Heating Energy [J] !Hourly
1267,1,ROOM_E681BE48 IDEAL LOADS AIR SYSTEM,Zone Ideal Loads Supply Air Total Cooling Energy [J] !Hourly
1268,1,ROOM_E681BE48 IDEAL LOADS AIR SYSTEM,Zone Ideal Loads Zone Total Heating Energy [J] !Hourly
1269,1,ROOM_E681BE48 IDEAL LOADS AIR SYSTEM,Zone Ideal Loads Zone Total Cooling Energy [J] !Hourly
1270,1,ROOM_FFC704B2 IDEAL LOADS AIR SYSTEM,Zone Ideal Loads Supply Air Total Heating Energy [J] !Hourly
1271,1,ROOM_FFC704B2 IDEAL LOADS AIR SYSTEM,Zone Ideal Loads Supply Air Total Cooling Energy [J] !Hourly
1272,1,ROOM_FFC704B2 IDEAL LOADS AIR SYSTEM,Zone Ideal Loads Zone Total Heating Energy [J] !Hourly
1273,1,ROOM_FFC704B2 IDEAL LOADS AIR SYSTEM,Zone Ideal Loads Zone Total Cooling Energy [J] !Hourly
End of Data Dictionary
1,RUN PERIOD 1,  42.37, -71.02,  -5.00,   6.00
2,1, 1, 1, 0, 1, 0.00,60.00,Sunday
7,0.0
8,0.0
9,0.0
10,0.0
11,0.0
12,0.0
13,0.0
14,0.0
15,0.0
430,0.0
431,0.0
432,0.0
433,0.0
434,0.0
435,0.0
436,0.0
437,0.0
438,0.0
439,0.0
440,81228.18700057864
441,0.0
442,110997.24627245279
443,0.0
444,87862.8088985797
445,0.0
446,143519.222597703
447,0.0
448,106774.6100265148
449,0.0
450,305976.59121377367
451,0.0
452,89481.16816320509
453,0.0
454,262923.6603715445
455,0.0
456,144666.84551547859
457,0.0
458,280631.56372200718
459,0.0
460,280425.19252954298
461,0.0
462,303584.73063702948
463,0.0
464,138213.94948863224
465,0.0
466,153102.16769022347
467,0.0
468,160457.27698318038
469,0.0
470,198302.821699652
471,0.0
472,301390.6994449499
473,0.0
474,141919.85398967088
475,0.0
476,121430.03624784826
477,0.0
478,544438.0890131294
479,0.0
480,1538.3398745504424
481,0.0
482,-78251.37275667212
483,0.0
484,-45452.00666774374
485,0.0
486,-38403.894223542724
487,10075.746969669008
488,14226.200561547628
489,565.5601162094478
490,0.0
491,-272879.13086751158
492,0.0
493,-76722.20362284516
494,1514.344315833498
495,14654.142940010992
496,79905.16023063203
497,10441.948678802735
498,0.0
499,-571822.7101395266
500,25070.253871589997
501,0.0
502,-39768.71432929039
503,-25484.1519565176
504,0.0
505,-251682.12669241723
506,266678.689091721
507,41696.446073367595
508,66455.96934010094
509,3426.019662403966
510,0.0
511,-63380.57598503917
512,0.0
513,-123091.60188885179
514,0.0
515,-131081.93862886259
516,53050.6335518447
517,6104.39179426212
518,10250.42726082151
519,0.0
520,-208130.18396335277
521,0.0
522,-61984.37479189238
523,11010.289896130058
524,42150.75661173872
525,3340.3649605927205
526,1385.726370936837
527,0.0
528,-104755.945090609
529,-11186.135720462154
530,20403.92543056991
531,29068.478301134524
532,5210.863607327025
533,27479.17706554105
534,0.0
535,-80842.69674225265
536,-14477.037565562661
537,0.0
538,-89375.83346980249
539,0.0
540,-290199.881658923
541,96806.6551008743
542,9398.420898628254
543,23268.771000267312
544,-17169.068384619604
545,0.0
546,-62046.24702619021
547,0.0
548,-56802.40039522927
549,-5405.83102825246
550,20700.30748182478
551,2862.63325901759
552,0.0
553,-995455.9725539116
554,-10332.611592222542
555,-15951.931219552187
556,-20540.673177592784
557,-61093.887772747024
558,0.0
559,-738.8156529064798
560,-14162.61959987989
561,407730.01265915788
562,66353.13503249953
563,204966.86014349754
564,0.0
565,157855.42904288579
566,0.0
567,410204.45886323219
568,0.0
569,475504.1840416604
570,0.0
571,286752.35985514518
572,0.0
573,95401.79806357237
574,0.0
575,440411.05520278928
576,0.0
577,172915.91087837524
578,0.0
579,323798.1549285167
580,0.0
1142,687634.4993912678
1191,0.0
1240,604751.0596278517
1241,0.0
1242,369470.6106700495
1243,0.0
1244,269754.4506499921
1245,0.0
1246,1123521.1328845947
1247,0.0
1248,614949.3581783666
1249,0.0
1250,1980907.7705497472
1251,0.0
1252,1254356.9720089874
1253,0.0
1254,1104677.08724619
1255,0.0
1256,811524.1088181731
1257,0.0
1258,361930.0871972882
1259,0.0
1260,219636.58263236495
1261,0.0
1262,1599938.5304858576
1263,0.0
1264,1176388.1726014934
1265,0.0
1266,795101.1438030988
1267,0.0
1268,501681.8752164895
1269,0.0
1270,997929.2832192672
1271,0.0
1272,141765.34821399157
1273,15814.115051993584
2,1, 1, 1, 0, 2, 0.00,60.00,Sunday
7,0.0
8,0.0
9,0.0
10,0.0
11,0.0
12,0.0
13,0.0
14,0.0
15,0.0
430,0.0
431,0.0
432,0.0
433,0.0
434,0.0
435,0.0
436,0.0
437,0.0
438,0.0
439,0.0
440,63315.61725214169
441,0.0
442,86880.71913966113
443,0.0
444,67598.47341033614
445,0.0
446,111625.86550358031
447,0.0
448,83200.44044597357
449,0.0
450,238573.71490920385
451,0.0
452,70442.01248700978
453,0.0
454,204839.31743359802
455,0.0
456,113121.70598332366
457,0.0
458,217271.59265646994
459,0.0
460,219905.71052731417
461,0.0
462,235032.12172200794
463,0.0
464,106972.72503720336
465,0.0
466,119144.31010454186
467,0.0
468,125466.4528904522
469,0.0
470,153141.35809655855
471,0.0
472,232743.81202288695
473,0.0
474,110213.40782514509
475,0.0
476,95209.00130928515
477,0.0
478,426835.22139866105
479,0.0
480,1217.983536760912
481,0.0
482,10336.133061433495
483,0.0
484,67643.12134985607
485,0.0
486,52727.01081821499
487,9079.48315575335
488,8664.977065742018
489,-510.71435168621999
490,0.0
491,-114164.70434473666
492,0.0
493,28820.431691134017
494,1034.7802935676967
495,13112.163938282532
496,65773.67047611989
497,7367.300190335005
498,0.0
499,-237369.49419766404
500,22893.723253458014
501,0.0
502,44322.082364078364
503,-23722.881970877403
504,0.0
505,11723.859587217945
506,222274.7189440739
507,31236.379507841695
508,60106.12032798042
509,2894.7834998437999
510,0.0
511,80731.23621538375
512,0.0
513,155549.31007495893
514,0.0
515,143423.51293995128
516,30835.470629427058
517,861.4270220937011
518,8985.483035967598
519,0.0
520,103749.43210437776
521,0.0
522,76362.0083620916
523,10193.886662680683
524,28561.89068886767
525,516.2979417572378
526,78.81809511467053
527,0.0
528,46875.63957774555
529,-10602.729049191516
530,18066.469924240173
531,23995.239990715014
532,3472.5045333197
533,24352.643068460347
534,0.0
535,81490.9222623773
536,-13191.21863832189
537,0.0
538,110404.6683600708
539,0.0
540,28597.03367025963
541,71364.85406625967
542,4169.793247052798
543,20727.394613307733
544,-16218.397073863536
545,0.0
546,76696.54065922633
547,0.0
548,62277.08959858882
549,-5426.309370220704
550,13161.47162995761
551,789.093374418369
552,0.0
553,-417601.3123328765
554,-10291.004426433048
555,-15173.424367475176
556,-18974.22057526591
557,-56186.65761399478
558,0.0
559,665.1096024626055
560,-14552.655782400032
561,347974.79381559698
562,53253.28021525412
563,163254.18684784036
564,0.0
565,125082.73997760299
566,0.0
567,317247.68526896639
568,0.0
569,365215.2077786812
570,0.0
571,223254.3268793033
572,0.0
573,73330.76337706435
574,0.0
575,343642.21227116257
576,0.0
577,132377.22102406459
578,0.0
579,244827.87005989674
580,0.0
1142,579838.3358104924
1191,0.0
1240,512392.7068716681
1241,0.0
1242,305144.27534942419
1243,0.0
1244,224609.298853778
1245,0.0
1246,904082.5481725179
1247,0.0
1248,505061.26604244849
1249,0.0
1250,1629355.1380180147
1251,0.0
1252,1063743.508563487
1253,0.0
1254,918894.5742531665
1255,0.0
1256,687166.1259301058
1257,0.0
1258,298019.75908132918
1259,0.0
1260,187150.20383383754
1261,0.0
1262,1331852.568310904
1263,0.0
1264,996182.7044414927
1265,0.0
1266,658197.6810845177
1267,0.0
1268,430601.0733958661
1269,0.0
1270,763629.1874997798
1271,0.0
1272,118286.89110180692
1273,21930.675676763345
2,1, 1, 1, 0, 3, 0.00,60.00,Sunday
7,0.0
8,0.0
9,0.0
10,0.0
11,0.0
12,0.0
13,0.0
14,0.0
15,0.0
430,0.0
431,0.0
432,0.0
433,0.0
434,0.0
435,0.0
436,0.0
437,0.0
438,0.0
439,0.0
440,65205.88364317369
441,0.0
442,89550.93110625974
443,0.0
444,69512.83808160639
445,0.0
446,113844.60731037383
447,0.0
448,84823.60202205729
449,0.0
450,243049.16479846874
451,0.0
452,71832.6184445502
453,0.0
454,208695.73464017522
455,0.0
456,116236.3963564874
457,0.0
458,222922.53315841536
459,0.0
460,226054.01210378757
461,0.0
462,241214.12004460765
463,0.0
464,109788.39070728093
465,0.0
466,121999.86372381609
467,0.0
468,128786.74140809584
469,0.0
470,156996.660047415
471,0.0
472,238617.2546097557
473,0.0
474,113107.75774494786
475,0.0
476,97888.0799717397
477,0.0
478,434590.31629737108
479,0.0
480,1241.1003719070014
481,0.0
482,-22193.630582441736
483,0.0
484,19136.835538964955
485,0.0
486,15360.480290743522
487,11214.566930391793
488,7591.961178612659
489,-254.12481390252894
490,0.0
491,-157591.72431913697
492,0.0
493,-11678.448955032494
494,3764.3467115240798
495,14035.24757564944
496,57082.99417673144
497,6080.604462336019
498,0.0
499,-329188.71031821446
500,25397.43807833819
501,0.0
502,8525.357194892333
503,-19262.40075506791
504,0.0
505,-83011.73949213968
506,199484.03237970509
507,27755.104479743495
508,58854.4686438518
509,4668.182513347079
510,0.0
511,19846.45978995785
512,0.0
513,39541.321933054176
514,0.0
515,25897.55790106842
516,30388.09280496267
517,2051.6103263884235
518,10108.931223322566
519,0.0
520,-17657.123199793612
521,0.0
522,19153.35002630657
523,14137.312150538226
524,25575.516822567686
525,871.8397546681244
526,319.8943700663579
527,0.0
528,-12681.413188813154
529,-8834.842505338049
530,17672.484073222073
531,21863.96702208478
532,2920.642621151759
533,25176.61940202528
534,0.0
535,14117.72585551824
536,-10484.226893359306
537,0.0
538,28139.12078070802
539,0.0
540,-86174.01033496221
541,64697.347646090326
542,4483.970037703498
543,19852.44330230072
544,-13143.41095527713
545,0.0
546,18610.167683857228
547,0.0
548,11409.904670509322
549,-4161.443914396078
550,11865.312377751052
551,809.7402019253535
552,0.0
553,-576915.6879179524
554,-9199.037133799204
555,-12847.390399319314
556,-16107.410222017117
557,-48443.74078779615
558,0.0
559,66.93669383977013
560,-12713.158952217782
561,311395.2091138382
562,47863.69516349056
563,176212.38863025543
564,0.0
565,135840.75301578307
566,0.0
567,350305.60188488077
568,0.0
569,404553.12487305959
570,0.0
571,245702.46730907705
572,0.0
573,81203.06550309342
574,0.0
575,377676.64825937707
576,0.0
577,146824.46363723448
578,0.0
579,272572.11481946337
580,0.0
1142,587397.9163659866
1191,0.0
1240,513269.0346035928
1241,0.0
1242,332448.17725172327
1243,0.0
1244,243362.50628434047
1245,0.0
1246,985660.8756059501
1247,0.0
1248,537675.9716581003
1249,0.0
1250,1670643.3796849007
1251,0.0
1252,1034039.740850955
1253,0.0
1254,938533.1902364134
1255,0.0
1256,679048.8432974308
1257,0.0
1258,310645.48642477349
1259,0.0
1260,185890.87771047656
1261,0.0
1262,1371309.7201783155
1263,0.0
1264,995882.0971139032
1265,0.0
1266,671609.1714043464
1267,0.0
1268,415202.85362789276
1269,0.0
1270,869622.5949118317
1271,0.0
1272,116069.24542391824
1273,0.0
2,1, 1, 1, 0, 4, 0.00,60.00,Sunday
7,0.0
8,0.0
9,0.0
10,0.0
11,0.0
12,0.0
13,0.0
14,0.0
15,0.0
430,0.0
431,0.0
432,0.0
433,0.0
434,0.0
435,0.0
436,0.0
437,0.0
438,0.0
439,0.0
440,66239.67379521154
441,0.0
442,90923.85902068694
443,0.0
444,70561.6322274979
445,0.0
446,114844.70571228738
447,0.0
448,85511.28827609138
449,0.0
450,245033.19457283669
451,0.0
452,72366.41955732534
453,0.0
454,210385.68566598567
455,0.0
456,117949.11037358214
457,0.0
458,226152.76290306863
459,0.0
460,229542.66934450193
461,0.0
462,244705.03623050039
463,0.0
464,111380.1837198434
465,0.0
466,123521.92442822745
467,0.0
468,130467.74031895983
469,0.0
470,159064.73480845244
471,0.0
472,241844.7363274399
473,0.0
474,114769.79718763432
475,0.0
476,99407.94996113691
477,0.0
478,438060.0745948868
479,0.0
480,1249.8804848047849
481,0.0
482,-37587.57474662035
483,0.0
484,-6183.954030680623
485,0.0
486,-4631.987734557017
487,11370.261730286667
488,6949.022095504784
489,5.117185437638084
490,0.0
491,-172207.28067419123
492,0.0
493,-31947.07130750909
494,4958.1526432356599
495,13926.206174155679
496,50061.01810556524
497,5154.474146876181
498,0.0
499,-360487.3478783168
500,25379.994323848136
501,0.0
502,-10162.905158877797
503,-17381.77783423373
504,0.0
505,-127620.11623139514
506,180459.67102189619
507,24800.662529578214
508,54875.57607369771
509,5141.688889206142
510,0.0
511,-12158.193259626783
512,0.0
513,-22092.486145217095
514,0.0
515,-34422.867373053086
516,30383.21895917809
517,3026.4962747187626
518,10053.876101121521
519,0.0
520,-79039.61055774412
521,0.0
522,-11226.199589746064
523,15073.582822369697