Program Version,EnergyPlus, Version 9.3.0-baff08990c, YMD=2021.04.24 20:46
1,5,Environment Title[],Latitude[deg],Longitude[deg],Time Zone[],Elevation[m]
2,8,Day of Simulation[],Month[],Day of Month[],DST Indicator[1=yes 0=no],Hour[],StartMinute[],EndMinute[],DayType
3,5,Cumulative Day of Simulation[],Month[],Day of Month[],DST Indicator[1=yes 0=no],DayType  ! When Daily Report Variables Requested
4,2,Cumulative Days of Simulation[],Month[]  ! When Monthly Report Variables Requested
5,1,Cumulative Days of Simulation[] ! When Run Period Report Variables Requested
6,1,Calendar Year of Simulation[] ! When Annual Report Variables Requested
7,1,ROOM_05ABD83F,Zone People Total Heating Energy [J] !Hourly
8,1,ROOM_0E759560,Zone People Total Heating Energy [J] !Hourly
9,1,ROOM_1FB3609C,Zone People Total Heating Energy [J] !Hourly
10,1,ROOM_3452F56A,Zone People Total Heating Energy [J] !Hourly
11,1,ROOM_A53D4AB7,Zone People Total Heating Energy [J] !Hourly
274,1,ROOM_05ABD83F,Zone Windows Total Transmitted Solar Radiation Energy [J] !Hourly
275,1,ROOM_0E759560,Zone Windows Total Transmitted Solar Radiation Energy [J] !Hourly
276,1,ROOM_1FB3609C,Zone Windows Total Transmitted Solar Radiation Energy [J] !Hourly
277,1,ROOM_3452F56A,Zone Windows Total Transmitted Solar Radiation Energy [J] !Hourly
278,1,ROOM_A53D4AB7,Zone Windows Total Transmitted Solar Radiation Energy [J] !Hourly
279,1,ROOM_05ABD83F..FACE1_GLZ1,Surface Window Heat Gain Energy [J] !Hourly
280,1,ROOM_05ABD83F..FACE1_GLZ1,Surface Window Heat Loss Energy [J] !Hourly
281,1,ROOM_05ABD83F..FACE2_GLZ1,Surface Window Heat Gain Energy [J] !Hourly
282,1,ROOM_05ABD83F..FACE2_GLZ1,Surface Window Heat Loss Energy [J] !Hourly
283,1,ROOM_0E759560..FACE3_GLZ1,Surface Window Heat Gain Energy [J] !Hourly
284,1,ROOM_0E759560..FACE3_GLZ1,Surface Window Heat Loss Energy [J] !Hourly
285,1,ROOM_1FB3609C..FACE3_GLZ1,Surface Window Heat Gain Energy [J] !Hourly
286,1,ROOM_1FB3609C..FACE3_GLZ1,Surface Window Heat Loss Energy [J] !Hourly
287,1,ROOM_1FB3609C..FACE4_GLZ1,Surface Window Heat Gain Energy [J] !Hourly
288,1,ROOM_1FB3609C..FACE4_GLZ1,Surface Window Heat Loss Energy [J] !Hourly
289,1,ROOM_3452F56A..FACE1_GLZ1,Surface Window Heat Gain Energy [J] !Hourly
290,1,ROOM_3452F56A..FACE1_GLZ1,Surface Window Heat Loss Energy [J] !Hourly
291,1,ROOM_3452F56A..FACE4_GLZ1,Surface Window Heat Gain Energy [J] !Hourly
292,1,ROOM_3452F56A..FACE4_GLZ1,Surface Window Heat Loss Energy [J] !Hourly
293,1,ROOM_A53D4AB7..FACE2_GLZ1,Surface Window Heat Gain Energy [J] !Hourly
294,1,ROOM_A53D4AB7..FACE2_GLZ1,Surface Window Heat Loss Energy [J] !Hourly
295,1,ROOM_A53D4AB7..FACE3_GLZ1,Surface Window Heat Gain Energy [J] !Hourly
296,1,ROOM_A53D4AB7..FACE3_GLZ1,Surface Window Heat Loss Energy [J] !Hourly
297,1,ROOM_A53D4AB7..FACE4_GLZ1,Surface Window Heat Gain Energy [J] !Hourly
298,1,ROOM_A53D4AB7..FACE4_GLZ1,Surface Window Heat Loss Energy [J] !Hourly
299,1,ROOM_05ABD83F..FACE1,Surface Outside Face Solar Radiation Heat Gain Energy [J] !Hourly
300,1,ROOM_05ABD83F..FACE1,Surface Average Face Conduction Heat Transfer Energy [J] !Hourly
301,1,ROOM_05ABD83F..FACE2,Surface Outside Face Solar Radiation Heat Gain Energy [J] !Hourly
302,1,ROOM_05ABD83F..FACE2,Surface Average Face Conduction Heat Transfer Energy [J] !Hourly
303,1,ROOM_05ABD83F..FACE3,Surface Average Face Conduction Heat Transfer Energy [J] !Hourly
304,1,ROOM_05ABD83F..FACE4,Surface Average Face Conduction Heat Transfer Energy [J] !Hourly
305,1,ROOM_05ABD83F..FACE5,Surface Average Face Conduction Heat Transfer Energy [J] !Hourly
306,1,ROOM_05ABD83F..FACE0,Surface Average Face Conduction Heat Transfer Energy [J] !Hourly
307,1,ROOM_05ABD83F..FACE6,Surface Average Face Conduction Heat Transfer Energy [J] !Hourly
308,1,ROOM_0E759560..FACE1,Surface Average Face Conduction Heat Transfer Energy [J] !Hourly
309,1,ROOM_0E759560..FACE2,Surface Average Face Conduction Heat Transfer Energy [J] !Hourly
310,1,ROOM_0E759560..FACE3,Surface Outside Face Solar Radiation Heat Gain Energy [J] !Hourly
311,1,ROOM_0E759560..FACE3,Surface Average Face Conduction Heat Transfer Energy [J] !Hourly
312,1,ROOM_0E759560..FACE4,Surface Average Face Conduction Heat Transfer Energy [J] !Hourly
313,1,ROOM_0E759560..FACE0,Surface Average Face Conduction Heat Transfer Energy [J] !Hourly
314,1,ROOM_0E759560..FACE5,Surface Average Face Conduction Heat Transfer Energy [J] !Hourly
315,1,ROOM_1FB3609C..FACE1,Surface Average Face Conduction Heat Transfer Energy [J] !Hourly
316,1,ROOM_1FB3609C..FACE2,Surface Average Face Conduction Heat Transfer Energy [J] !Hourly
317,1,ROOM_1FB3609C..FACE3,Surface Outside Face Solar Radiation Heat Gain Energy [J] !Hourly
318,1,ROOM_1FB3609C..FACE3,Surface Average Face Conduction Heat Transfer Energy [J] !Hourly
319,1,ROOM_1FB3609C..FACE4,Surface Outside Face Solar Radiation Heat Gain Energy [J] !Hourly
320,1,ROOM_1FB3609C..FACE4,Surface Average Face Conduction Heat Transfer Energy [J] !Hourly
321,1,ROOM_1FB3609C..FACE0,Surface Average Face Conduction Heat Transfer Energy [J] !Hourly
322,1,ROOM_1FB3609C..FACE5,Surface Average Face Conduction Heat Transfer Energy [J] !Hourly
323,1,ROOM_3452F56A..FACE1,Surface Outside Face Solar Radiation Heat Gain Energy [J] !Hourly
324,1,ROOM_3452F56A..FACE1,Surface Average Face Conduction Heat Transfer Energy [J] !Hourly
325,1,ROOM_3452F56A..FACE2,Surface Average Face Conduction Heat Transfer Energy [J] !Hourly
326,1,ROOM_3452F56A..FACE3,Surface Average Face Conduction Heat Transfer Energy [J] !Hourly
327,1,ROOM_3452F56A..FACE4,Surface Outside Face Solar Radiation Heat Gain Energy [J] !Hourly
328,1,ROOM_3452F56A..FACE4,Surface Average Face Conduction Heat Transfer Energy [J] !Hourly
329,1,ROOM_3452F56A..FACE0,Surface Average Face Conduction Heat Transfer Energy [J] !Hourly
330,1,ROOM_3452F56A..FACE5,Surface Average Face Conduction Heat Transfer Energy [J] !Hourly
331,1,ROOM_A53D4AB7..FACE1,Surface Average Face Conduction Heat Transfer Energy [J] !Hourly
332,1,ROOM_A53D4AB7..FACE2,Surface Outside Face Solar Radiation Heat Gain Energy [J] !Hourly
333,1,ROOM_A53D4AB7..FACE2,Surface Average Face Conduction Heat Transfer Energy [J] !Hourly
334,1,ROOM_A53D4AB7..FACE3,Surface Outside Face Solar Radiation Heat Gain Energy [J] !Hourly
335,1,ROOM_A53D4AB7..FACE3,Surface Average Face Conduction Heat Transfer Energy [J] !Hourly
336,1,ROOM_A53D4AB7..FACE4,Surface Outside Face Solar Radiation Heat Gain Energy [J] !Hourly
337,1,ROOM_A53D4AB7..FACE4,Surface Average Face Conduction Heat Transfer Energy [J] !Hourly
338,1,ROOM_A53D4AB7..FACE5,Surface Average Face Conduction Heat Transfer Energy [J] !Hourly
339,1,ROOM_A53D4AB7..FACE0,Surface Average Face Conduction Heat Transfer Energy [J] !Hourly
340,1,ROOM_A53D4AB7..FACE6,Surface Average Face Conduction Heat Transfer Energy [J] !Hourly
341,1,ROOM_05ABD83F,Zone Infiltration Total Heat Loss Energy [J] !Hourly
342,1,ROOM_05ABD83F,Zone Infiltration Total Heat Gain Energy [J] !Hourly
343,1,ROOM_0E759560,Zone Infiltration Total Heat Loss Energy [J] !Hourly
344,1,ROOM_0E759560,Zone Infiltration Total Heat Gain Energy [J] !Hourly
345,1,ROOM_1FB3609C,Zone Infiltration Total Heat Loss Energy [J] !Hourly
346,1,ROOM_1FB3609C,Zone Infiltration Total Heat Gain Energy [J] !Hourly
347,1,ROOM_3452F56A,Zone Infiltration Total Heat Loss Energy [J] !Hourly
348,1,ROOM_3452F56A,Zone Infiltration Total Heat Gain Energy [J] !Hourly
349,1,ROOM_A53D4AB7,Zone Infiltration Total Heat Loss Energy [J] !Hourly
350,1,ROOM_A53D4AB7,Zone Infiltration Total Heat Gain Energy [J] !Hourly
760,1,ROOM_05ABD83F IDEAL LOADS AIR SYSTEM,Zone Ideal Loads Supply Air Total Heating Energy [J] !Hourly
809,1,ROOM_05ABD83F IDEAL LOADS AIR SYSTEM,Zone Ideal Loads Supply Air Total Cooling Energy [J] !Hourly
858,1,ROOM_05ABD83F IDEAL LOADS AIR SYSTEM,Zone Ideal Loads Zone Total Heating Energy [J] !Hourly
859,1,ROOM_05ABD83F IDEAL LOADS AIR SYSTEM,Zone Ideal Loads Zone Total Cooling Energy [J] !Hourly
860,1,ROOM_0E759560 IDEAL LOADS AIR SYSTEM,Zone Ideal Loads Supply Air Total Heating Energy [J] !Hourly
861,1,ROOM_0E759560 IDEAL LOADS AIR SYSTEM,Zone Ideal Loads Supply Air Total Cooling Energy [J] !Hourly
862,1,ROOM_0E759560 IDEAL LOADS AIR SYSTEM,Zone Ideal Loads Zone Total Heating Energy [J] !Hourly
863,1,ROOM_0E759560 IDEAL LOADS AIR SYSTEM,Zone Ideal Loads Zone Total Cooling Energy [J] !Hourly
864,1,ROOM_1FB3609C IDEAL LOADS AIR SYSTEM,Zone Ideal Loads Supply Air Total Heating Energy [J] !Hourly
865,1,ROOM_1FB3609C IDEAL LOADS AIR SYSTEM,Zone Ideal Loads Supply Air Total Cooling Energy [J] !Hourly
866,1,ROOM_1FB3609C IDEAL LOADS AIR SYSTEM,Zone Ideal Loads Zone Total Heating Energy [J] !Hourly
867,1,ROOM_1FB3609C IDEAL LOADS AIR SYSTEM,Zone Ideal Loads Zone Total Cooling Energy [J] !Hourly
868,1,ROOM_3452F56A IDEAL LOADS AIR SYSTEM,Zone Ideal Loads Supply Air Total Heating Energy [J] !Hourly
869,1,ROOM_3452F56A IDEAL LOADS AIR SYSTEM,Zone Ideal Loads Supply Air Total Cooling Energy [J] !Hourly
870,1,ROOM_3452F56A IDEAL LOADS AIR SYSTEM,Zone Ideal Loads Zone Total Heating Energy [J] !Hourly
871,1,ROOM_3452F56A IDEAL LOADS AIR SYSTEM,Zone Ideal Loads Zone Total Cooling Energy [J] !Hourly
872,1,ROOM_A53D4AB7 IDEAL LOADS AIR SYSTEM,Zone Ideal Loads Supply Air Total Heating Energy [J] !Hourly
873,1,ROOM_A53D4AB7 IDEAL LOADS AIR SYSTEM,Zone Ideal Loads Supply Air Total Cooling Energy [J] !Hourly
874,1,ROOM_A53D4AB7 IDEAL LOADS AIR SYSTEM,Zone Ideal Loads Zone Total Heating Energy [J] !Hourly
875,1,ROOM_A53D4AB7 IDEAL LOADS AIR SYSTEM,Zone Ideal Loads Zone Total Cooling Energy [J] !Hourly
End of Data Dictionary
1,RUN PERIOD 1,  42.37, -71.02,  -5.00,   6.00
2,1, 1, 1, 0, 1, 0.00,60.00,Sunday
7,0.0
8,0.0
9,0.0
10,0.0
11,0.0
274,0.0
275,0.0
276,0.0
277,0.0
278,0.0
279,0.0
280,195099.98537824726
281,0.0
282,262613.33748121667
283,0.0
284,181572.2337000719
285,0.0
286,168840.5951028656
287,0.0
288,156314.21905585667
289,0.0
290,176241.70425466696
291,0.0
292,267343.68086222177
293,0.0
294,183292.35123456477
295,0.0
296,152105.44012420695
297,0.0
298,197990.84911850783
299,0.0
300,-367900.20336990119
301,0.0
302,-193695.0642342469
303,-1037.2577569677433
304,-7060.581359283383
305,6064.762927487825
306,154278.48337831995
307,23014.58911593977
308,8950.218056461053
309,-13076.117126469107
310,0.0
311,-79901.91836404513
312,-6105.922125414193
313,23903.593061138617
314,3928.0710989942779
315,15738.267985918445
316,4778.120254507424
317,0.0
318,-77027.81710747638
319,0.0
320,-148597.70116912607
321,46528.718188324216
322,4925.657307687681
323,0.0
324,-331382.68870024677
325,1603.175216925418
326,-14194.514120668959
327,0.0
328,-256020.74263166885
329,171574.2434105202
330,25689.408327341032
331,1081.6487140271868
332,0.0
333,-293365.35969336659
334,0.0
335,-108444.04180254268
336,0.0
337,-91640.08927721447
338,10937.001221142551
339,93350.72994633662
340,7994.745811903341
341,287624.65241894297
342,0.0
343,114706.79143457947
344,0.0
345,210432.0122621007
346,0.0
347,275583.92480767678
348,0.0
349,357457.55760106447
350,0.0
760,858647.1609977495
809,0.0
858,523284.1218072732
859,0.0
860,531667.5627637786
861,0.0
862,341110.9285207428
863,0.0
864,730879.6277834909
865,0.0
866,548470.84385554
867,0.0
868,764611.5122106882
869,0.0
870,462859.2225792419
871,0.0
872,1130341.6515998049
873,0.0
874,912574.2522499998
875,0.0
2,1, 1, 1, 0, 2, 0.00,60.00,Sunday
7,0.0
8,0.0
9,0.0
10,0.0
11,0.0
274,0.0
275,0.0
276,0.0
277,0.0
278,0.0
279,0.0
280,151855.33352025276
281,0.0
282,204937.6030358896
283,0.0
284,140787.55367225962
285,0.0
286,130389.01246029149
287,0.0
288,121326.2811107022
289,0.0
290,137242.8066814053
291,0.0
292,208014.20968589557
293,0.0
294,141973.2750577432
295,0.0
296,117589.58132956384
297,0.0
298,152698.6140303579
299,0.0
300,-151944.3953986692
301,0.0
302,65165.09409054792
303,-992.1421709028228
304,-6868.096398712316
305,3987.0811598955444
306,127709.3595220288
307,16418.776991300572
308,7095.553314002247
309,-12594.9493327836
310,0.0
311,97012.31418007196
312,-6130.3699085757339
313,17956.056236726516
314,2113.351980366565
315,13415.094948954402
316,4038.650227481783
317,0.0
318,91839.47754519705
319,0.0
320,13377.607602529273
321,35665.25802791834
322,2521.8748593502657
323,0.0
324,-137339.1315235616
325,334.90851379407726
326,-13292.336599230392
327,0.0
328,12426.907169806067
329,142387.93708642448
330,18639.728615827687
331,951.9337220704331
332,0.0
333,-85644.30648266565
334,0.0
335,50592.60789540302
336,0.0
337,109566.50231300036
338,10022.966256853479
339,72519.3581860247
340,4104.881103112032
341,222918.2698864433
342,0.0
343,87871.63905551592
344,0.0
345,164707.3337841989
346,0.0
347,214057.8801456571
348,0.0
349,282549.81578753606
350,0.0
760,702496.2837025443
809,0.0
858,438732.67401266979
859,0.0
860,444073.58102776858
861,0.0
862,296158.3246928866
863,0.0
864,608246.3426554106
865,0.0
866,463145.5614011744
867,0.0
868,626227.9097710487
869,0.0
870,388294.05314029767
871,0.0
872,942132.5428959517
873,0.0
874,766773.5526262401
875,0.0
2,1, 1, 1, 0, 3, 0.00,60.00,Sunday
7,0.0
8,0.0
9,0.0
10,0.0
11,0.0
274,0.0
275,0.0
276,0.0
277,0.0
278,0.0
279,0.0
280,155017.02794282969
281,0.0
282,209204.92741780374
283,0.0
284,144430.8060127336
285,0.0
286,133681.23886117774
287,0.0
288,124333.9860886945
289,0.0
290,139960.74546850348
291,0.0
292,212138.64275835688
293,0.0
294,145448.89632024384
295,0.0
296,120393.55660720734
297,0.0
298,156372.34192809114
299,0.0
300,-211278.5984001307
301,0.0
302,-34629.383286126205
303,-803.568964656509
304,-3675.6476678004557
305,6371.5839551576959
306,114339.47531679718
307,14220.864990643538
308,7255.953997839585
309,-11220.22641009756
310,0.0
311,22602.227308701706
312,-4822.789490490404
313,16059.850883110328
314,1771.6867113257723
315,14296.958638905193
316,6174.264223718777
317,0.0
318,21913.546395135483
319,0.0
320,-45109.26718559723
321,31942.038368912512
322,2370.0619906502827
323,0.0
324,-190628.87900676827
325,3707.112477250786
326,-9841.871980722015
327,0.0
328,-84621.34979344312
329,126121.84566455664
330,15922.391477541296
331,1063.3078813585688
332,0.0
333,-148732.78203952558
334,0.0
335,-9846.010662065783
336,0.0
337,27493.604023827596
338,13133.366306262093
339,64665.21236972205
340,4031.435143469713
341,245875.73936881976
342,0.0
343,97437.78814862247
344,0.0
345,180643.46579673029
346,0.0
347,235816.43973513685
348,0.0
349,307465.3375560017
350,0.0
760,752283.0555774843
809,0.0
858,456421.3133360923
859,0.0
860,455144.9051976002
861,0.0
862,288535.7673749244
863,0.0
864,627040.6362028071
865,0.0
866,465055.0268059329
867,0.0
868,679910.4861963156
869,0.0
870,413293.06698255296
871,0.0
872,974611.3333181392
873,0.0
874,780282.7526693647
875,0.0
2,1, 1, 1, 0, 4, 0.00,60.00,Sunday
7,0.0
8,0.0
9,0.0
10,0.0
11,0.0
274,0.0
275,0.0
276,0.0
277,0.0
278,0.0
279,0.0
280,156557.8479173649
281,0.0
282,211159.90942889662
283,0.0
284,146468.6763048665
285,0.0
286,135448.1897608957
287,0.0
288,125983.10720146355
289,0.0
290,141216.06832712383
291,0.0
292,214019.74285825727
293,0.0
294,147230.63603885944
295,0.0
296,121789.75833392414
297,0.0
298,158209.00343968499
299,0.0
300,-231462.4073869916
301,0.0
302,-84007.09617514159
303,-749.3118004458843
304,-2115.9555611891307
305,6101.145833144445
306,103892.40027784443
307,12619.409621164816
308,6295.22863619626
309,-11462.447149641259
310,0.0
311,-16485.07942177397
312,-4731.434268482798
313,14960.290725180945
314,1701.9991163292212
315,13416.04937228034
316,6843.198578185971
317,0.0
318,-15076.214870712325
319,0.0
320,-72778.88976387444
321,29045.974121535426
322,2354.00197009772
323,0.0
324,-208731.7863113648
325,4277.8143555577539
326,-8430.795906266185
327,0.0
328,-130113.0996778959
329,112954.67232641304
330,13895.275178215765
331,1050.3822408746444
332,0.0
333,-173655.52888573439
334,0.0
335,-40571.478042730334
336,0.0
337,-16232.03701261333
338,14174.162251831844
339,58114.6786910463
340,4023.6910024889928
341,255664.99555048836
342,0.0
343,101846.69569117119
344,0.0
345,186988.7188775279
346,0.0
347,244955.03194806796
348,0.0
349,316790.16632019708
350,0.0
760,797080.5551674119
809,0.0
858,488040.3882199359
859,0.0
860,467869.3401020219
861,0.0
862,292859.45822101787
863,0.0
864,646732.9503876407
865,0.0
866,478378.42779846259
867,0.0
868,729327.9573063017
869,0.0
870,451146.5716524357
871,0.0
872,1007933.9975455188
873,0.0
874,807040.959633912
875,0.0
2,1, 1, 1, 0, 5, 0.00,60.00,Sunday
7,0.0
8,0.0
9,0.0
10,0.0
11,0.0
274,0.0
275,0.0
276,0.0
277,0.0
278,0.0
279,0.0
280,155696.85819549833
281,0.0
282,209854.75882583156
283,0.0
284,146072.36815142068
285,0.0
286,134980.49795744057
287,0.0
288,125602.12990559318
289,0.0
290,140347.71114466917
291,0.0
292,212671.54794703963
293,0.0
294,146607.8383917372
295,0.0
296,121249.04187938274
297,0.0
298,157493.85467628225
299,0.0
300,-227116.42093880598
301,0.0
302,-98935.54962607773
303,-734.8165234215499
304,-1250.6957184731433
305,5136.074324095622
306,94928.12393011923
307,11108.133749794382
308,5027.396328249921
309,-12064.311427586117
310,0.0
311,-31266.982643676827
312,-5017.74940262117
313,13827.416881322728
314,1602.3683382074747
315,12084.158176490262
316,6926.6320225764179
317,0.0
318,-29055.637582335545
319,0.0
320,-79825.81662909698
321,26088.77299724756
322,2203.0251619752295
323,0.0
324,-204804.6549900931
325,3950.728288681339
326,-7737.135232037917
327,0.0
328,-141319.5209043043
329,101474.76947474746
330,12031.974681518455
331,997.1011993723583
332,0.0
333,-173883.26772691063
334,0.0
335,-50507.17773111924
336,0.0
337,-32768.09017522494
338,14428.58550947609
339,51559.17209852512
340,3735.94668507384
341,259463.24407897829
342,0.0
343,103701.66889529578
344,0.0
345,189297.08346605174
346,0.0
347,248446.4500191757
348,0.0
349,319968.1388220255
350,0.0
760,823363.8617627679
809,0.0
858,510762.8519617162
859,2070.853057647605
860,474606.85066783477
861,0.0
862,296645.17481828076
863,868.8508453899743
864,656981.9992272855
865,0.0
866,487328.34379343307
867,1307.5900228669298
868,761212.6100696049
869,0.0
870,480088.1867568629
871,1944.608259960762
872,1025756.7844855101
873,0.0
874,823977.3639438965
875,1718.3424452561838
2,1, 1, 1, 0, 6, 0.00,60.00,Sunday
7,0.0
8,0.0
9,0.0
10,0.0
11,0.0
274,0.0
275,0.0
276,0.0
277,0.0
278,0.0
279,0.0
280,155438.30637384367
281,0.0
282,209782.28209969618
283,0.0
284,146394.5644232616
285,0.0
286,135180.19581232573
287,0.0
288,125695.75606965504
289,0.0
290,140034.21542038394
291,0.0
292,212210.4871592795
293,0.0
294,146606.5624607205
295,0.0
296,121321.68237044555
297,0.0
298,157573.20436236205
299,0.0
300,-223279.02027615973
301,0.0
302,-104706.00964305761
303,-720.843116145863
304,-520.5557097564278
305,4307.881246078148
306,86266.05892334235
307,9773.485542972376
308,3881.044369501767
309,-12571.478585941293
310,0.0
311,-36502.698220069586
312,-5277.86968400589
313,12741.822902279873
314,1489.0260820292938
315,10917.29008481291
316,6972.019635880302
317,0.0
318,-33952.243717689926
319,0.0
320,-82406.60929424023
321,23375.982883980792
322,2021.0441235542367
323,0.0
324,-201328.07386630245
325,3699.7652135126
326,-7092.335227550738
327,0.0
328,-145411.21173403544
329,92215.38727157013
330,10452.96036599503
331,949.3675888351423
332,0.0
333,-173079.86090921338
334,0.0
335,-53736.09179234444
336,0.0
337,-38482.34367360664
338,14640.008317248821
339,45642.774031093104
340,3396.8041621379027
341,259578.61336391665
342,0.0
343,103959.25196711399
344,0.0
345,189128.51708530254
346,0.0
347,248471.4428758267
348,0.0
349,319325.6643596411
350,0.0
760,848139.2174434328
809,0.0
858,535442.6250453792
859,2243.4592956422595
860,480858.1764727782
861,0.0
862,302682.31054921945
863,1229.5226344296426
864,666158.279814348
865,0.0
866,496513.84520110968
867,1186.1153804161803
868,786854.5565043993
869,0.0
870,505671.5942549238
871,2011.9001302181233
872,1041469.8606161689
873,0.0
874,839698.7563941747
875,1278.8874416535408
2,1, 1, 1, 0, 7, 0.00,60.00,Sunday
7,13723.627789116
8,7819.738982316
9,7445.6851619160029
10,12340.630235916002
11,8855.580331116003
274,0.0
275,0.0
276,0.0
277,0.0
278,0.0
279,0.0
280,158207.63479465544
281,0.0
282,213994.32794361434
283,0.0
284,149658.45139761395
285,0.0
286,138167.5334640004
287,0.0
288,128479.0010615042
289,0.0
290,142463.81216705036
291,0.0
292,216272.79482747828
293,0.0
294,149683.65592979984
295,0.0
296,123917.13993852736
297,0.0
298,160947.7737287588
299,0.0
300,-238707.8707251427
301,0.0
302,-135784.61881169468
303,-727.7368105918454
304,-215.99252848725573
305,3118.0311571074737
306,77055.06852279109
307,8239.989897403302
308,2556.9761516426249
309,-13300.299399626718
310,0.0
311,-58595.18459614706
312,-5795.048844291781
313,11148.563503843121
314,1162.7887026679403
315,9730.241185756819
316,6858.092286572883
317,0.0
318,-54801.42094543831
319,0.0
320,-99594.77129182189
321,20567.295990045066
322,1709.877329868497
323,0.0
324,-215152.59943007033
325,3090.851867257802
326,-6809.791511753881
327,0.0
328,-174042.69070246729
329,82605.33849105638
330,8810.237601305631
331,899.2564035549551
332,0.0
333,-191498.77969978093
334,0.0
335,-71736.88779158112
336,0.0
337,-63079.55633111659
338,14761.36436909917
339,40100.69375447604
340,2971.348214619112
341,264234.68361726359
342,0.0
343,105860.37425122608
344,0.0
345,192514.15015446445
346,0.0
347,252922.714067261
348,0.0
349,325107.38524542018
350,0.0
760,863684.4880626669
809,0.0
858,544660.6251167747
859,558.7196319102475
860,480678.3275015952
861,0.0
862,298898.82546501318
863,367.28785397648098
864,671904.5018260088
865,0.0
866,498820.11415039558
867,239.23919602555089
868,804527.5613652223
869,0.0
870,517653.3736687626
871,479.7351582690567
872,1055679.261126467
873,0.0
874,849817.4467350099
875,177.9946834519535
2,1, 1, 1, 0, 8, 0.00,60.00,Sunday
7,13723.627789116
8,7819.738982316
9,7445.6851619160029
10,12340.630235916002
11,8855.580331116003
274,123497.07315170128
275,21138.10997639283
276,38653.99859434379
277,74146.16826334319
278,116906.19938960303
279,0.0
280,99438.36818976823
281,3505.874755977046
282,125937.25485101773
283,0.0
284,126582.16245069116
285,0.0
286,115904.42991679647
287,0.0
288,108185.30433544112
289,0.0
290,89443.652507954
291,0.0
292,182329.3834119689
293,0.0
294,94804.43049236064
295,4009.0700264899808
296,69955.96073416445
297,0.0
298,134253.87886779695
299,224528.79975501274
300,-173651.26347726095
301,340790.6908002647
302,-47074.70747530195
303,-1065.3935414452915
304,-5866.0082769169589
305,-6475.6647774981579
306,40756.08353723718
307,3020.818866053115
308,253.68893560317668
309,-14835.599490838224
310,98417.8157021057
311,-47574.094022327525
312,-7365.850296479501
313,6823.817582930684
314,386.8732591779394
315,5956.051198875463
316,4169.88520256758
317,94145.50851978916
318,-45007.322801569666
319,85972.59508270357
320,-87555.69342782848
321,12770.491610080833
322,464.436432602851
323,201984.359759735
324,-155253.40570442825
325,-2775.1441671046025
326,-10107.855936595673
327,142399.1779004209
328,-154718.3260186318
329,59578.662684880735
330,5211.082751053636
331,482.17163626969588
332,210092.83467019944
333,-134226.88263554834
334,217610.8538740765
335,-17083.70836340465
336,112237.31397585836
337,-54941.28050371934
338,8028.841233171269
339,12917.003829451152
340,-572.1358797224915
341,270740.87676805126
342,0.0
343,108510.23694352122
344,0.0
345,197193.72906028079
346,0.0
347,259133.4179303099
348,0.0
349,332880.8228750169
350,0.0
760,865550.7612356094
809,0.0
858,542131.2314592062
859,3904.687622764578
860,484180.10981285889
861,0.0
862,299896.24568914427
863,2325.2741244585397
864,675628.8998055956
865,0.0
866,500171.48717484148
867,2034.1020079005887
868,817903.3067897717
869,0.0
870,527081.2586621202
871,3482.6340863692505
872,1047770.8789492116
873,0.0
874,839085.5755402745
875,2267.5267465559556
2,1, 1, 1, 0, 9, 0.00,60.00,Sunday
7,13723.627789116
8,7819.738982316
9,7445.6851619160029
10,12340.630235916002
11,8855.580331116003
274,979572.5266171119
275,82118.86218076416
276,149679.4600449604
277,491218.8862641783
278,861576.4206963428
279,361623.05703709649
280,0.0
281,502368.50844866517
282,0.0
283,0.0
284,50186.965823665865
285,0.0
286,43255.773359723345
287,0.0
288,41520.76245030659
289,326975.8319987537
290,0.0
291,0.0
292,71045.93020082393
293,407544.78135321396
294,0.0
295,286369.20619684396
296,0.0
297,0.0
298,47826.26169398126
299,1866883.1319137787
300,376431.13730088659
301,2502816.3781789906
302,652231.0885885903
303,-2828.4757205018688
304,-40598.52323505027
305,-55254.16718210541
306,-214474.21120873799
307,-25998.152507686445
308,-472.23536499814755
309,-13787.328305849123
310,381755.11519752777
311,19974.661855066566
312,-10685.653879307436
313,-6301.42057112914
314,-2494.1884274134015
315,382.8101273893429
316,-2282.149171209632
317,362680.38712841589
318,17643.77890862186
319,332913.04424623996
320,-22666.03473652153
321,-6946.646200903637
322,-3138.0707104735217
323,1679045.9468213223
324,349201.51015564936
325,-23112.177310157713
326,-26113.41088999463
327,560772.3387893526
328,-52798.07515464892
329,-61517.80956796196
330,-9348.750383536075
331,-1252.0920459654095
332,1936320.9569885242
333,445731.2770010624
334,1474376.4300689027
335,378602.6381990211
336,442782.7531937037
337,475.5404898128342
338,-26982.190667754614
339,-184890.92439265079
340,-20339.8319301946
341,271005.49822494559
342,0.0
343,108694.18905597362
344,0.0
345,197277.0911121419
346,0.0
347,259352.5471539473
348,0.0
349,332812.07627785557
350,0.0
760,663110.019201867
809,0.0
858,339698.685814312
859,3765.7993128000496
860,452922.4122079852
861,0.0
862,268654.4416988997
863,2410.4378480692159
864,631934.351055953
865,0.0
866,456489.7968596588
867,1850.4536028435182
868,713943.5659351451
869,0.0
870,423136.3696169532
871,3319.793621741491
872,835897.4877700971
873,0.0
874,627222.6576003322
875,1879.4384329298339
2,1, 1, 1, 0,10, 0.00,60.00,Sunday
7,13723.627789116
8,7819.738982316
9,7445.6851619160029
10,12340.630235916002
11,8855.580331116003
274,2699398.8578373806
275,137124.21202989389
276,251361.27552613565
277,1419135.6162069112
278,2383972.801559896
279,1508194.7640006317
280,0.0
281,1495666.6819846235
282,0.0
283,14040.11706311294
284,4795.434078012839
285,15925.45003437038
286,3475.200676165059
287,17393.496117966166
288,2927.017095500879
289,1364861.2506403493
290,0.0
291,27608.55436453773
292,4732.166223053782
293,1677733.4007108655
294,0.0
295,821942.0562408416
296,0.0
297,12291.014191177474
298,4135.11629994306
299,5960751.141548015
300,1461883.3726308908
301,6016225.790261508
302,1439213.3579853902
303,-4859.627032814118
304,-98321.20955065002
305,-122447.03772564075
306,-690288.974140593
307,-83025.68389206064
308,17108.122984039626
309,5600.427183471807
310,630766.7844149903
311,20106.993271473162
312,-14999.007350426542
313,-25173.361280669742
314,-7557.51842534781
315,7066.661519376385
316,-5442.128906883874
317,595005.9981607936
318,18524.57947087013
319,570582.600641761
320,-9914.807978566949
321,-25237.137161364015
322,-6516.94070324814
323,5360477.469496093
324,1336415.833214945
325,-38631.82331237
326,-58373.41531302902
327,990007.7331013559
328,-44510.45424831774
329,-331506.5135353674
330,-40556.28690986385
331,-3468.9726369699139
332,6444386.390197275
333,1650572.834249543
334,3462632.5222006647
335,813539.8269667411
336,755940.9343331183
337,-24716.20565926103
338,-87378.88129448313
339,-576988.3469439375
340,-60916.314637912816
341,282477.20877240676
342,0.0
343,112754.26251347858
344,0.0
345,204450.36597936112
346,0.0
347,268888.9832954044
348,0.0
349,344666.66347564136
350,0.0
760,78589.6850598425
809,0.0
858,0.0
859,261155.02481050799
860,394427.66488826487
861,0.0
862,205926.51815825705
863,4884.959923519464
864,583253.6202287019
865,0.0
866,403813.40554054229
867,4107.567931266422
868,416817.53428753316
869,0.0
870,119271.30919757694
871,7030.374252911415
872,275590.5539905482
873,0.0
874,80745.21440835382
875,23038.919693696756
2,1, 1, 1, 0,11, 0.00,60.00,Sunday
7,13723.627789116
8,7819.738982316
9,7445.6851619160029
10,12340.630235916002
11,8855.580331116003
274,2003936.2783297445
275,192589.9589082177
276,359980.80862888655
277,1456818.845471769
278,1952352.2292562435
279,1434648.7097577544
280,0.0
281,689661.1482616264
282,0.0
283,81493.1654506132
284,0.0
285,84773.22444052373
286,0.0
287,85757.13704270299
288,0.0
289,1298612.3388301689
290,0.0
291,133424.39791207724
292,0.0
293,1454205.6687541325
294,0.0
295,419413.55585760858
296,0.0
297,84144.22187565395
298,0.0
299,5726892.319696788
300,1144561.798651266
301,3645420.2640690004
302,463031.8265857694
303,-1715.1442483129693
304,-68126.32748137214
305,-59678.512344645496
306,-391877.8138127286
307,-67953.96354892019
308,33311.22951851926
309,24558.94861331923
310,880779.1449815938
311,109613.9683730372
312,-17916.591800668328
313,-46007.93105792356
314,-12548.289180351228
315,15273.217132778149
316,-8423.317256289482