Program Version,EnergyPlus, Version 9.3.0-baff08990c, YMD=2021.04.24 20:36
1,5,Environment Title[],Latitude[deg],Longitude[deg],Time Zone[],Elevation[m]
2,8,Day of Simulation[],Month[],Day of Month[],DST Indicator[1=yes 0=no],Hour[],StartMinute[],EndMinute[],DayType
3,5,Cumulative Day of Simulation[],Month[],Day of Month[],DST Indicator[1=yes 0=no],DayType  ! When Daily Report Variables Requested
4,2,Cumulative Days of Simulation[],Month[]  ! When Monthly Report Variables Requested
5,1,Cumulative Days of Simulation[] ! When Run Period Report Variables Requested
6,1,Calendar Year of Simulation[] ! When Annual Report Variables Requested
7,1,ROOM_123547F1,Zone People Total Heating Energy [J] !Hourly
8,1,ROOM_14A32C2F,Zone People Total Heating Energy [J] !Hourly
9,1,ROOM_3B83C507,Zone People Total Heating Energy [J] !Hourly
10,1,ROOM_50399FA2,Zone People Total Heating Energy [J] !Hourly
11,1,ROOM_64455466,Zone People Total Heating Energy [J] !Hourly
12,1,ROOM_7E27C7FA,Zone People Total Heating Energy [J] !Hourly
13,1,ROOM_8223911F,Zone People Total Heating Energy [J] !Hourly
14,1,ROOM_85EBD173,Zone People Total Heating Energy [J] !Hourly
15,1,ROOM_A37391F5,Zone People Total Heating Energy [J] !Hourly
16,1,ROOM_B7DA1FB5,Zone People Total Heating Energy [J] !Hourly
17,1,ROOM_C8DF9F13,Zone People Total Heating Energy [J] !Hourly
18,1,ROOM_E2453104,Zone People Total Heating Energy [J] !Hourly
547,1,ROOM_123547F1,Zone Windows Total Transmitted Solar Radiation Energy [J] !Hourly
548,1,ROOM_14A32C2F,Zone Windows Total Transmitted Solar Radiation Energy [J] !Hourly
549,1,ROOM_3B83C507,Zone Windows Total Transmitted Solar Radiation Energy [J] !Hourly
550,1,ROOM_50399FA2,Zone Windows Total Transmitted Solar Radiation Energy [J] !Hourly
551,1,ROOM_64455466,Zone Windows Total Transmitted Solar Radiation Energy [J] !Hourly
552,1,ROOM_7E27C7FA,Zone Windows Total Transmitted Solar Radiation Energy [J] !Hourly
553,1,ROOM_8223911F,Zone Windows Total Transmitted Solar Radiation Energy [J] !Hourly
554,1,ROOM_85EBD173,Zone Windows Total Transmitted Solar Radiation Energy [J] !Hourly
555,1,ROOM_A37391F5,Zone Windows Total Transmitted Solar Radiation Energy [J] !Hourly
556,1,ROOM_B7DA1FB5,Zone Windows Total Transmitted Solar Radiation Energy [J] !Hourly
557,1,ROOM_C8DF9F13,Zone Windows Total Transmitted Solar Radiation Energy [J] !Hourly
558,1,ROOM_E2453104,Zone Windows Total Transmitted Solar Radiation Energy [J] !Hourly
559,1,ROOM_123547F1..FACE3_GLZ1,Surface Window Heat Gain Energy [J] !Hourly
560,1,ROOM_123547F1..FACE3_GLZ1,Surface Window Heat Loss Energy [J] !Hourly
561,1,ROOM_14A32C2F..FACE1_GLZ1,Surface Window Heat Gain Energy [J] !Hourly
562,1,ROOM_14A32C2F..FACE1_GLZ1,Surface Window Heat Loss Energy [J] !Hourly
563,1,ROOM_14A32C2F..FACE2_GLZ1,Surface Window Heat Gain Energy [J] !Hourly
564,1,ROOM_14A32C2F..FACE2_GLZ1,Surface Window Heat Loss Energy [J] !Hourly
565,1,ROOM_14A32C2F..FACE3_GLZ1,Surface Window Heat Gain Energy [J] !Hourly
566,1,ROOM_14A32C2F..FACE3_GLZ1,Surface Window Heat Loss Energy [J] !Hourly
567,1,ROOM_14A32C2F..FACE4_GLZ1,Surface Window Heat Gain Energy [J] !Hourly
568,1,ROOM_14A32C2F..FACE4_GLZ1,Surface Window Heat Loss Energy [J] !Hourly
569,1,ROOM_3B83C507..FACE1_GLZ1,Surface Window Heat Gain Energy [J] !Hourly
570,1,ROOM_3B83C507..FACE1_GLZ1,Surface Window Heat Loss Energy [J] !Hourly
571,1,ROOM_3B83C507..FACE4_GLZ1,Surface Window Heat Gain Energy [J] !Hourly
572,1,ROOM_3B83C507..FACE4_GLZ1,Surface Window Heat Loss Energy [J] !Hourly
573,1,ROOM_50399FA2..FACE1_GLZ1,Surface Window Heat Gain Energy [J] !Hourly
574,1,ROOM_50399FA2..FACE1_GLZ1,Surface Window Heat Loss Energy [J] !Hourly
575,1,ROOM_50399FA2..FACE2_GLZ1,Surface Window Heat Gain Energy [J] !Hourly
576,1,ROOM_50399FA2..FACE2_GLZ1,Surface Window Heat Loss Energy [J] !Hourly
577,1,ROOM_50399FA2..FACE4_GLZ1,Surface Window Heat Gain Energy [J] !Hourly
578,1,ROOM_50399FA2..FACE4_GLZ1,Surface Window Heat Loss Energy [J] !Hourly
579,1,ROOM_64455466..FACE2_GLZ1,Surface Window Heat Gain Energy [J] !Hourly
580,1,ROOM_64455466..FACE2_GLZ1,Surface Window Heat Loss Energy [J] !Hourly
581,1,ROOM_64455466..FACE3_GLZ1,Surface Window Heat Gain Energy [J] !Hourly
582,1,ROOM_64455466..FACE3_GLZ1,Surface Window Heat Loss Energy [J] !Hourly
583,1,ROOM_64455466..FACE4_GLZ1,Surface Window Heat Gain Energy [J] !Hourly
584,1,ROOM_64455466..FACE4_GLZ1,Surface Window Heat Loss Energy [J] !Hourly
585,1,ROOM_8223911F..FACE1_GLZ1,Surface Window Heat Gain Energy [J] !Hourly
586,1,ROOM_8223911F..FACE1_GLZ1,Surface Window Heat Loss Energy [J] !Hourly
587,1,ROOM_8223911F..FACE4_GLZ1,Surface Window Heat Gain Energy [J] !Hourly
588,1,ROOM_8223911F..FACE4_GLZ1,Surface Window Heat Loss Energy [J] !Hourly
589,1,ROOM_85EBD173..FACE1_GLZ1,Surface Window Heat Gain Energy [J] !Hourly
590,1,ROOM_85EBD173..FACE1_GLZ1,Surface Window Heat Loss Energy [J] !Hourly
591,1,ROOM_85EBD173..FACE2_GLZ1,Surface Window Heat Gain Energy [J] !Hourly
592,1,ROOM_85EBD173..FACE2_GLZ1,Surface Window Heat Loss Energy [J] !Hourly
593,1,ROOM_85EBD173..FACE4_GLZ1,Surface Window Heat Gain Energy [J] !Hourly
594,1,ROOM_85EBD173..FACE4_GLZ1,Surface Window Heat Loss Energy [J] !Hourly
595,1,ROOM_85EBD173..FACE5_GLZ1,Surface Window Heat Gain Energy [J] !Hourly
596,1,ROOM_85EBD173..FACE5_GLZ1,Surface Window Heat Loss Energy [J] !Hourly
597,1,ROOM_A37391F5..FACE4_GLZ1,Surface Window Heat Gain Energy [J] !Hourly
598,1,ROOM_A37391F5..FACE4_GLZ1,Surface Window Heat Loss Energy [J] !Hourly
599,1,ROOM_B7DA1FB5..FACE4_GLZ1,Surface Window Heat Gain Energy [J] !Hourly
600,1,ROOM_B7DA1FB5..FACE4_GLZ1,Surface Window Heat Loss Energy [J] !Hourly
601,1,ROOM_C8DF9F13..FACE2_GLZ1,Surface Window Heat Gain Energy [J] !Hourly
602,1,ROOM_C8DF9F13..FACE2_GLZ1,Surface Window Heat Loss Energy [J] !Hourly
603,1,ROOM_C8DF9F13..FACE3_GLZ1,Surface Window Heat Gain Energy [J] !Hourly
604,1,ROOM_C8DF9F13..FACE3_GLZ1,Surface Window Heat Loss Energy [J] !Hourly
605,1,ROOM_E2453104..FACE1_GLZ1,Surface Window Heat Gain Energy [J] !Hourly
606,1,ROOM_E2453104..FACE1_GLZ1,Surface Window Heat Loss Energy [J] !Hourly
607,1,ROOM_123547F1..FACE1,Surface Average Face Conduction Heat Transfer Energy [J] !Hourly
608,1,ROOM_123547F1..FACE2,Surface Average Face Conduction Heat Transfer Energy [J] !Hourly
609,1,ROOM_123547F1..FACE3,Surface Outside Face Solar Radiation Heat Gain Energy [J] !Hourly
610,1,ROOM_123547F1..FACE3,Surface Average Face Conduction Heat Transfer Energy [J] !Hourly
611,1,ROOM_123547F1..FACE4,Surface Average Face Conduction Heat Transfer Energy [J] !Hourly
612,1,ROOM_123547F1..FACE0,Surface Average Face Conduction Heat Transfer Energy [J] !Hourly
613,1,ROOM_123547F1..FACE5,Surface Average Face Conduction Heat Transfer Energy [J] !Hourly
614,1,ROOM_14A32C2F..FACE1,Surface Outside Face Solar Radiation Heat Gain Energy [J] !Hourly
615,1,ROOM_14A32C2F..FACE1,Surface Average Face Conduction Heat Transfer Energy [J] !Hourly
616,1,ROOM_14A32C2F..FACE2,Surface Outside Face Solar Radiation Heat Gain Energy [J] !Hourly
617,1,ROOM_14A32C2F..FACE2,Surface Average Face Conduction Heat Transfer Energy [J] !Hourly
618,1,ROOM_14A32C2F..FACE3,Surface Outside Face Solar Radiation Heat Gain Energy [J] !Hourly
619,1,ROOM_14A32C2F..FACE3,Surface Average Face Conduction Heat Transfer Energy [J] !Hourly
620,1,ROOM_14A32C2F..FACE4,Surface Outside Face Solar Radiation Heat Gain Energy [J] !Hourly
621,1,ROOM_14A32C2F..FACE4,Surface Average Face Conduction Heat Transfer Energy [J] !Hourly
622,1,ROOM_14A32C2F..FACE5,Surface Average Face Conduction Heat Transfer Energy [J] !Hourly
623,1,ROOM_14A32C2F..FACE6,Surface Average Face Conduction Heat Transfer Energy [J] !Hourly
624,1,ROOM_14A32C2F..FACE7,Surface Average Face Conduction Heat Transfer Energy [J] !Hourly
625,1,ROOM_14A32C2F..FACE8,Surface Average Face Conduction Heat Transfer Energy [J] !Hourly
626,1,ROOM_14A32C2F..FACE0,Surface Average Face Conduction Heat Transfer Energy [J] !Hourly
627,1,ROOM_14A32C2F..FACE9,Surface Average Face Conduction Heat Transfer Energy [J] !Hourly
628,1,ROOM_3B83C507..FACE1,Surface Outside Face Solar Radiation Heat Gain Energy [J] !Hourly
629,1,ROOM_3B83C507..FACE1,Surface Average Face Conduction Heat Transfer Energy [J] !Hourly
630,1,ROOM_3B83C507..FACE2,Surface Average Face Conduction Heat Transfer Energy [J] !Hourly
631,1,ROOM_3B83C507..FACE3,Surface Average Face Conduction Heat Transfer Energy [J] !Hourly
632,1,ROOM_3B83C507..FACE4,Surface Outside Face Solar Radiation Heat Gain Energy [J] !Hourly
633,1,ROOM_3B83C507..FACE4,Surface Average Face Conduction Heat Transfer Energy [J] !Hourly
634,1,ROOM_3B83C507..FACE5,Surface Average Face Conduction Heat Transfer Energy [J] !Hourly
635,1,ROOM_3B83C507..FACE0,Surface Average Face Conduction Heat Transfer Energy [J] !Hourly
636,1,ROOM_3B83C507..FACE6,Surface Average Face Conduction Heat Transfer Energy [J] !Hourly
637,1,ROOM_50399FA2..FACE1,Surface Outside Face Solar Radiation Heat Gain Energy [J] !Hourly
638,1,ROOM_50399FA2..FACE1,Surface Average Face Conduction Heat Transfer Energy [J] !Hourly
639,1,ROOM_50399FA2..FACE2,Surface Outside Face Solar Radiation Heat Gain Energy [J] !Hourly
640,1,ROOM_50399FA2..FACE2,Surface Average Face Conduction Heat Transfer Energy [J] !Hourly
641,1,ROOM_50399FA2..FACE3,Surface Average Face Conduction Heat Transfer Energy [J] !Hourly
642,1,ROOM_50399FA2..FACE4,Surface Outside Face Solar Radiation Heat Gain Energy [J] !Hourly
643,1,ROOM_50399FA2..FACE4,Surface Average Face Conduction Heat Transfer Energy [J] !Hourly
644,1,ROOM_50399FA2..FACE0,Surface Average Face Conduction Heat Transfer Energy [J] !Hourly
645,1,ROOM_50399FA2..FACE5,Surface Average Face Conduction Heat Transfer Energy [J] !Hourly
646,1,ROOM_64455466..FACE1,Surface Average Face Conduction Heat Transfer Energy [J] !Hourly
647,1,ROOM_64455466..FACE2,Surface Outside Face Solar Radiation Heat Gain Energy [J] !Hourly
648,1,ROOM_64455466..FACE2,Surface Average Face Conduction Heat Transfer Energy [J] !Hourly
649,1,ROOM_64455466..FACE3,Surface Outside Face Solar Radiation Heat Gain Energy [J] !Hourly
650,1,ROOM_64455466..FACE3,Surface Average Face Conduction Heat Transfer Energy [J] !Hourly
651,1,ROOM_64455466..FACE4,Surface Outside Face Solar Radiation Heat Gain Energy [J] !Hourly
652,1,ROOM_64455466..FACE4,Surface Average Face Conduction Heat Transfer Energy [J] !Hourly
653,1,ROOM_64455466..FACE0,Surface Average Face Conduction Heat Transfer Energy [J] !Hourly
654,1,ROOM_64455466..FACE5,Surface Average Face Conduction Heat Transfer Energy [J] !Hourly
655,1,ROOM_7E27C7FA..FACE1,Surface Average Face Conduction Heat Transfer Energy [J] !Hourly
656,1,ROOM_7E27C7FA..FACE2,Surface Average Face Conduction Heat Transfer Energy [J] !Hourly
657,1,ROOM_7E27C7FA..FACE3,Surface Average Face Conduction Heat Transfer Energy [J] !Hourly
658,1,ROOM_7E27C7FA..FACE4,Surface Average Face Conduction Heat Transfer Energy [J] !Hourly
659,1,ROOM_7E27C7FA..FACE0,Surface Average Face Conduction Heat Transfer Energy [J] !Hourly
660,1,ROOM_7E27C7FA..FACE5,Surface Average Face Conduction Heat Transfer Energy [J] !Hourly
661,1,ROOM_8223911F..FACE1,Surface Outside Face Solar Radiation Heat Gain Energy [J] !Hourly
662,1,ROOM_8223911F..FACE1,Surface Average Face Conduction Heat Transfer Energy [J] !Hourly
663,1,ROOM_8223911F..FACE2,Surface Average Face Conduction Heat Transfer Energy [J] !Hourly
664,1,ROOM_8223911F..FACE3,Surface Average Face Conduction Heat Transfer Energy [J] !Hourly
665,1,ROOM_8223911F..FACE4,Surface Outside Face Solar Radiation Heat Gain Energy [J] !Hourly
666,1,ROOM_8223911F..FACE4,Surface Average Face Conduction Heat Transfer Energy [J] !Hourly
667,1,ROOM_8223911F..FACE0,Surface Average Face Conduction Heat Transfer Energy [J] !Hourly
668,1,ROOM_8223911F..FACE5,Surface Average Face Conduction Heat Transfer Energy [J] !Hourly
669,1,ROOM_85EBD173..FACE1,Surface Outside Face Solar Radiation Heat Gain Energy [J] !Hourly
670,1,ROOM_85EBD173..FACE1,Surface Average Face Conduction Heat Transfer Energy [J] !Hourly
671,1,ROOM_85EBD173..FACE2,Surface Outside Face Solar Radiation Heat Gain Energy [J] !Hourly
672,1,ROOM_85EBD173..FACE2,Surface Average Face Conduction Heat Transfer Energy [J] !Hourly
673,1,ROOM_85EBD173..FACE3,Surface Average Face Conduction Heat Transfer Energy [J] !Hourly
674,1,ROOM_85EBD173..FACE4,Surface Outside Face Solar Radiation Heat Gain Energy [J] !Hourly
675,1,ROOM_85EBD173..FACE4,Surface Average Face Conduction Heat Transfer Energy [J] !Hourly
676,1,ROOM_85EBD173..FACE5,Surface Outside Face Solar Radiation Heat Gain Energy [J] !Hourly
677,1,ROOM_85EBD173..FACE5,Surface Average Face Conduction Heat Transfer Energy [J] !Hourly
678,1,ROOM_85EBD173..FACE0,Surface Average Face Conduction Heat Transfer Energy [J] !Hourly
679,1,ROOM_85EBD173..FACE6,Surface Average Face Conduction Heat Transfer Energy [J] !Hourly
680,1,ROOM_A37391F5..FACE1,Surface Average Face Conduction Heat Transfer Energy [J] !Hourly
681,1,ROOM_A37391F5..FACE2,Surface Average Face Conduction Heat Transfer Energy [J] !Hourly
682,1,ROOM_A37391F5..FACE3,Surface Average Face Conduction Heat Transfer Energy [J] !Hourly
683,1,ROOM_A37391F5..FACE4,Surface Outside Face Solar Radiation Heat Gain Energy [J] !Hourly
684,1,ROOM_A37391F5..FACE4,Surface Average Face Conduction Heat Transfer Energy [J] !Hourly
685,1,ROOM_A37391F5..FACE5,Surface Average Face Conduction Heat Transfer Energy [J] !Hourly
686,1,ROOM_A37391F5..FACE0,Surface Average Face Conduction Heat Transfer Energy [J] !Hourly
687,1,ROOM_A37391F5..FACE6,Surface Average Face Conduction Heat Transfer Energy [J] !Hourly
688,1,ROOM_B7DA1FB5..FACE1,Surface Average Face Conduction Heat Transfer Energy [J] !Hourly
689,1,ROOM_B7DA1FB5..FACE2,Surface Average Face Conduction Heat Transfer Energy [J] !Hourly
690,1,ROOM_B7DA1FB5..FACE3,Surface Average Face Conduction Heat Transfer Energy [J] !Hourly
691,1,ROOM_B7DA1FB5..FACE4,Surface Outside Face Solar Radiation Heat Gain Energy [J] !Hourly
692,1,ROOM_B7DA1FB5..FACE4,Surface Average Face Conduction Heat Transfer Energy [J] !Hourly
693,1,ROOM_B7DA1FB5..FACE5,Surface Average Face Conduction Heat Transfer Energy [J] !Hourly
694,1,ROOM_B7DA1FB5..FACE6,Surface Average Face Conduction Heat Transfer Energy [J] !Hourly
695,1,ROOM_B7DA1FB5..FACE0,Surface Average Face Conduction Heat Transfer Energy [J] !Hourly
696,1,ROOM_B7DA1FB5..FACE7,Surface Average Face Conduction Heat Transfer Energy [J] !Hourly
697,1,ROOM_C8DF9F13..FACE1,Surface Average Face Conduction Heat Transfer Energy [J] !Hourly
698,1,ROOM_C8DF9F13..FACE2,Surface Outside Face Solar Radiation Heat Gain Energy [J] !Hourly
699,1,ROOM_C8DF9F13..FACE2,Surface Average Face Conduction Heat Transfer Energy [J] !Hourly
700,1,ROOM_C8DF9F13..FACE3,Surface Outside Face Solar Radiation Heat Gain Energy [J] !Hourly
701,1,ROOM_C8DF9F13..FACE3,Surface Average Face Conduction Heat Transfer Energy [J] !Hourly
702,1,ROOM_C8DF9F13..FACE4,Surface Average Face Conduction Heat Transfer Energy [J] !Hourly
703,1,ROOM_C8DF9F13..FACE5,Surface Average Face Conduction Heat Transfer Energy [J] !Hourly
704,1,ROOM_C8DF9F13..FACE0,Surface Average Face Conduction Heat Transfer Energy [J] !Hourly
705,1,ROOM_C8DF9F13..FACE6,Surface Average Face Conduction Heat Transfer Energy [J] !Hourly
706,1,ROOM_E2453104..FACE1,Surface Outside Face Solar Radiation Heat Gain Energy [J] !Hourly
707,1,ROOM_E2453104..FACE1,Surface Average Face Conduction Heat Transfer Energy [J] !Hourly
708,1,ROOM_E2453104..FACE2,Surface Average Face Conduction Heat Transfer Energy [J] !Hourly
709,1,ROOM_E2453104..FACE3,Surface Average Face Conduction Heat Transfer Energy [J] !Hourly
710,1,ROOM_E2453104..FACE4,Surface Average Face Conduction Heat Transfer Energy [J] !Hourly
711,1,ROOM_E2453104..FACE0,Surface Average Face Conduction Heat Transfer Energy [J] !Hourly
712,1,ROOM_E2453104..FACE5,Surface Average Face Conduction Heat Transfer Energy [J] !Hourly
713,1,ROOM_123547F1,Zone Infiltration Total Heat Loss Energy [J] !Hourly
714,1,ROOM_123547F1,Zone Infiltration Total Heat Gain Energy [J] !Hourly
715,1,ROOM_14A32C2F,Zone Infiltration Total Heat Loss Energy [J] !Hourly
716,1,ROOM_14A32C2F,Zone Infiltration Total Heat Gain Energy [J] !Hourly
717,1,ROOM_3B83C507,Zone Infiltration Total Heat Loss Energy [J] !Hourly
718,1,ROOM_3B83C507,Zone Infiltration Total Heat Gain Energy [J] !Hourly
719,1,ROOM_50399FA2,Zone Infiltration Total Heat Loss Energy [J] !Hourly
720,1,ROOM_50399FA2,Zone Infiltration Total Heat Gain Energy [J] !Hourly
721,1,ROOM_64455466,Zone Infiltration Total Heat Loss Energy [J] !Hourly
722,1,ROOM_64455466,Zone Infiltration Total Heat Gain Energy [J] !Hourly
723,1,ROOM_7E27C7FA,Zone Infiltration Total Heat Loss Energy [J] !Hourly
724,1,ROOM_7E27C7FA,Zone Infiltration Total Heat Gain Energy [J] !Hourly
725,1,ROOM_8223911F,Zone Infiltration Total Heat Loss Energy [J] !Hourly
726,1,ROOM_8223911F,Zone Infiltration Total Heat Gain Energy [J] !Hourly
727,1,ROOM_85EBD173,Zone Infiltration Total Heat Loss Energy [J] !Hourly
728,1,ROOM_85EBD173,Zone Infiltration Total Heat Gain Energy [J] !Hourly
729,1,ROOM_A37391F5,Zone Infiltration Total Heat Loss Energy [J] !Hourly
730,1,ROOM_A37391F5,Zone Infiltration Total Heat Gain Energy [J] !Hourly
731,1,ROOM_B7DA1FB5,Zone Infiltration Total Heat Loss Energy [J] !Hourly
732,1,ROOM_B7DA1FB5,Zone Infiltration Total Heat Gain Energy [J] !Hourly
733,1,ROOM_C8DF9F13,Zone Infiltration Total Heat Loss Energy [J] !Hourly
734,1,ROOM_C8DF9F13,Zone Infiltration Total Heat Gain Energy [J] !Hourly
735,1,ROOM_E2453104,Zone Infiltration Total Heat Loss Energy [J] !Hourly
736,1,ROOM_E2453104,Zone Infiltration Total Heat Gain Energy [J] !Hourly
1412,1,ROOM_123547F1 IDEAL LOADS AIR SYSTEM,Zone Ideal Loads Supply Air Total Heating Energy [J] !Hourly
1461,1,ROOM_123547F1 IDEAL LOADS AIR SYSTEM,Zone Ideal Loads Supply Air Total Cooling Energy [J] !Hourly
1510,1,ROOM_123547F1 IDEAL LOADS AIR SYSTEM,Zone Ideal Loads Zone Total Heating Energy [J] !Hourly
1511,1,ROOM_123547F1 IDEAL LOADS AIR SYSTEM,Zone Ideal Loads Zone Total Cooling Energy [J] !Hourly
1512,1,ROOM_14A32C2F IDEAL LOADS AIR SYSTEM,Zone Ideal Loads Supply Air Total Heating Energy [J] !Hourly
1513,1,ROOM_14A32C2F IDEAL LOADS AIR SYSTEM,Zone Ideal Loads Supply Air Total Cooling Energy [J] !Hourly
1514,1,ROOM_14A32C2F IDEAL LOADS AIR SYSTEM,Zone Ideal Loads Zone Total Heating Energy [J] !Hourly
1515,1,ROOM_14A32C2F IDEAL LOADS AIR SYSTEM,Zone Ideal Loads Zone Total Cooling Energy [J] !Hourly
1516,1,ROOM_3B83C507 IDEAL LOADS AIR SYSTEM,Zone Ideal Loads Supply Air Total Heating Energy [J] !Hourly
1517,1,ROOM_3B83C507 IDEAL LOADS AIR SYSTEM,Zone Ideal Loads Supply Air Total Cooling Energy [J] !Hourly
1518,1,ROOM_3B83C507 IDEAL LOADS AIR SYSTEM,Zone Ideal Loads Zone Total Heating Energy [J] !Hourly
1519,1,ROOM_3B83C507 IDEAL LOADS AIR SYSTEM,Zone Ideal Loads Zone Total Cooling Energy [J] !Hourly
1520,1,ROOM_50399FA2 IDEAL LOADS AIR SYSTEM,Zone Ideal Loads Supply Air Total Heating Energy [J] !Hourly
1521,1,ROOM_50399FA2 IDEAL LOADS AIR SYSTEM,Zone Ideal Loads Supply Air Total Cooling Energy [J] !Hourly
1522,1,ROOM_50399FA2 IDEAL LOADS AIR SYSTEM,Zone Ideal Loads Zone Total Heating Energy [J] !Hourly
1523,1,ROOM_50399FA2 IDEAL LOADS AIR SYSTEM,Zone Ideal Loads Zone Total Cooling Energy [J] !Hourly
1524,1,ROOM_64455466 IDEAL LOADS AIR SYSTEM,Zone Ideal Loads Supply Air Total Heating Energy [J] !Hourly
1525,1,ROOM_64455466 IDEAL LOADS AIR SYSTEM,Zone Ideal Loads Supply Air Total Cooling Energy [J] !Hourly
1526,1,ROOM_64455466 IDEAL LOADS AIR SYSTEM,Zone Ideal Loads Zone Total Heating Energy [J] !Hourly
1527,1,ROOM_64455466 IDEAL LOADS AIR SYSTEM,Zone Ideal Loads Zone Total Cooling Energy [J] !Hourly
1528,1,ROOM_7E27C7FA IDEAL LOADS AIR SYSTEM,Zone Ideal Loads Supply Air Total Heating Energy [J] !Hourly
1529,1,ROOM_7E27C7FA IDEAL LOADS AIR SYSTEM,Zone Ideal Loads Supply Air Total Cooling Energy [J] !Hourly
1530,1,ROOM_7E27C7FA IDEAL LOADS AIR SYSTEM,Zone Ideal Loads Zone Total Heating Energy [J] !Hourly
1531,1,ROOM_7E27C7FA IDEAL LOADS AIR SYSTEM,Zone Ideal Loads Zone Total Cooling Energy [J] !Hourly
1532,1,ROOM_8223911F IDEAL LOADS AIR SYSTEM,Zone Ideal Loads Supply Air Total Heating Energy [J] !Hourly
1533,1,ROOM_8223911F IDEAL LOADS AIR SYSTEM,Zone Ideal Loads Supply Air Total Cooling Energy [J] !Hourly
1534,1,ROOM_8223911F IDEAL LOADS AIR SYSTEM,Zone Ideal Loads Zone Total Heating Energy [J] !Hourly
1535,1,ROOM_8223911F IDEAL LOADS AIR SYSTEM,Zone Ideal Loads Zone Total Cooling Energy [J] !Hourly
1536,1,ROOM_85EBD173 IDEAL LOADS AIR SYSTEM,Zone Ideal Loads Supply Air Total Heating Energy [J] !Hourly
1537,1,ROOM_85EBD173 IDEAL LOADS AIR SYSTEM,Zone Ideal Loads Supply Air Total Cooling Energy [J] !Hourly
1538,1,ROOM_85EBD173 IDEAL LOADS AIR SYSTEM,Zone Ideal Loads Zone Total Heating Energy [J] !Hourly
1539,1,ROOM_85EBD173 IDEAL LOADS AIR SYSTEM,Zone Ideal Loads Zone Total Cooling Energy [J] !Hourly
1540,1,ROOM_A37391F5 IDEAL LOADS AIR SYSTEM,Zone Ideal Loads Supply Air Total Heating Energy [J] !Hourly
1541,1,ROOM_A37391F5 IDEAL LOADS AIR SYSTEM,Zone Ideal Loads Supply Air Total Cooling Energy [J] !Hourly
1542,1,ROOM_A37391F5 IDEAL LOADS AIR SYSTEM,Zone Ideal Loads Zone Total Heating Energy [J] !Hourly
1543,1,ROOM_A37391F5 IDEAL LOADS AIR SYSTEM,Zone Ideal Loads Zone Total Cooling Energy [J] !Hourly
1544,1,ROOM_B7DA1FB5 IDEAL LOADS AIR SYSTEM,Zone Ideal Loads Supply Air Total Heating Energy [J] !Hourly
1545,1,ROOM_B7DA1FB5 IDEAL LOADS AIR SYSTEM,Zone Ideal Loads Supply Air Total Cooling Energy [J] !Hourly
1546,1,ROOM_B7DA1FB5 IDEAL LOADS AIR SYSTEM,Zone Ideal Loads Zone Total Heating Energy [J] !Hourly
1547,1,ROOM_B7DA1FB5 IDEAL LOADS AIR SYSTEM,Zone Ideal Loads Zone Total Cooling Energy [J] !Hourly
1548,1,ROOM_C8DF9F13 IDEAL LOADS AIR SYSTEM,Zone Ideal Loads Supply Air Total Heating Energy [J] !Hourly
1549,1,ROOM_C8DF9F13 IDEAL LOADS AIR SYSTEM,Zone Ideal Loads Supply Air Total Cooling Energy [J] !Hourly
1550,1,ROOM_C8DF9F13 IDEAL LOADS AIR SYSTEM,Zone Ideal Loads Zone Total Heating Energy [J] !Hourly
1551,1,ROOM_C8DF9F13 IDEAL LOADS AIR SYSTEM,Zone Ideal Loads Zone Total Cooling Energy [J] !Hourly
1552,1,ROOM_E2453104 IDEAL LOADS AIR SYSTEM,Zone Ideal Loads Supply Air Total Heating Energy [J] !Hourly
1553,1,ROOM_E2453104 IDEAL LOADS AIR SYSTEM,Zone Ideal Loads Supply Air Total Cooling Energy [J] !Hourly
1554,1,ROOM_E2453104 IDEAL LOADS AIR SYSTEM,Zone Ideal Loads Zone Total Heating Energy [J] !Hourly
1555,1,ROOM_E2453104 IDEAL LOADS AIR SYSTEM,Zone Ideal Loads Zone Total Cooling Energy [J] !Hourly
End of Data Dictionary
1,RUN PERIOD 1,  42.37, -71.02,  -5.00,   6.00
2,1, 1, 1, 0, 1, 0.00,60.00,Sunday
7,0.0
8,0.0
9,0.0
10,0.0
11,0.0
12,0.0
13,0.0
14,0.0
15,0.0
16,0.0
17,0.0
18,0.0
547,0.0
548,0.0
549,0.0
550,0.0
551,0.0
552,0.0
553,0.0
554,0.0
555,0.0
556,0.0
557,0.0
558,0.0
559,0.0
560,176511.8149113667
561,0.0
562,420325.921120732
563,0.0
564,226687.38286390558
565,0.0
566,157631.9590812254
567,0.0
568,175120.50865922308
569,0.0
570,196266.55351525965
571,0.0
572,16594.613458042517
573,0.0
574,172379.8444308955
575,0.0
576,188920.28230256655
577,0.0
578,188679.74739315135
579,0.0
580,55399.80483536944
581,0.0
582,189279.66886421178
583,0.0
584,56387.26081428079
585,0.0
586,223040.55433598948
587,0.0
588,231207.07625465518
589,0.0
590,147101.13053612796
591,0.0
592,81861.27406299998
593,0.0
594,211319.89990439264
595,0.0
596,132140.83941037747
597,0.0
598,61278.0834642536
599,0.0
600,314564.8566257858
601,0.0
602,189831.68294322864
603,0.0
604,171915.47902889987
605,0.0
606,326551.76328190977
607,15165.647993905379
608,-7387.776564040994
609,0.0
610,-77401.9697725848
611,6110.2845003866309
612,10319.974330090225
613,1094.5713598134074
614,0.0
615,-789910.8892550375
616,0.0
617,-158390.5245862494
618,0.0
619,-71544.66424827112
620,0.0
621,-90468.22286067836
622,3160.4339774759389
623,-766.2131503525408
624,4097.282441970586
625,24391.347162130744
626,322837.9038948095
627,49325.10291320184
628,0.0
629,-184370.8837392028
630,12999.814737539822
631,6594.9221888468359
632,0.0
633,-6968.781123882872
634,-35194.79565453041
635,58683.36893200404
636,9402.02406159709
637,0.0
638,-328343.6672029088
639,0.0
640,-134439.78474795933
641,-3321.7933597037465
642,0.0
643,-180254.99752129217
644,143181.8232421089
645,16183.503643617492
646,31042.773034499318
647,0.0
648,-29777.787220374077
649,0.0
650,-84116.76191203177
651,0.0
652,-55046.500549667486
653,17763.956252340653
654,962.406442209805
655,776.1813829013859
656,-7226.873709349994
657,-14710.418630493328
658,-1344.4616905921426
659,5502.872875875547
660,1540.4076370243452
661,0.0
662,-414807.6753139375
663,18868.20904062449
664,-6485.529513967256
665,0.0
666,-221029.90640522529
667,194338.14256160108
668,29581.978281492055
669,0.0
670,-270160.6380161825
671,0.0
672,-108005.54384787906
673,21981.41936427563
674,0.0
675,-100213.01205697583
676,0.0
677,-130053.84407261467
678,136436.64908020193
679,14569.105742658197
680,1544.6712192736259
681,2050.206926060282
682,-7122.460182751476
683,0.0
684,-26670.32696246323
685,6461.037261034054
686,4831.907374381966
687,942.218733694025
688,28934.245849607847
689,-1307.8234553364274
690,-5525.140414711425
691,0.0
692,-139009.71821760413
693,-21853.99458148368
694,-4426.8700952160129
695,70831.35499131952
696,16132.718424992652
697,1015.1063886373651
698,0.0
699,-130377.40029780596
700,0.0
701,-76847.00333900872
702,4786.529830738943
703,7208.598986807871
704,36896.49186997853
705,3729.2098918074655
706,0.0
707,-596340.3510885164
708,-16505.326943972283
709,-19678.648038034396
710,-8829.060786500228
711,235303.91069224117
712,37715.275236887326
713,111944.14569255217
714,0.0
715,610916.0364381723
716,0.0
717,132588.13010924217
718,0.0
719,358652.7904696726
720,0.0
721,203450.0009182997
722,0.0
723,0.0
724,0.0
725,277503.019085106
726,0.0
727,376024.11708813029
728,0.0
729,37816.688306973476
730,0.0
731,192512.70644104633
732,0.0
733,235111.6102326272
734,0.0
735,193065.00920814585
736,0.0
1412,483488.8868245916
1461,0.0
1510,324438.2709864701
1511,0.0
1512,1990632.76500134
1513,0.0
1514,1050824.8522731586
1515,0.0
1516,567758.3405764734
1517,0.0
1518,292725.28163106637
1519,0.0
1520,1030689.7929994947
1521,0.0
1522,803754.1736639983
1523,0.0
1524,659460.9416925942
1525,0.0
1526,580546.9948440723
1527,0.0
1528,84616.0191192703
1529,0.0
1530,15009.010026186334
1531,0.0
1532,679948.0832912992
1533,0.0
1534,360579.3384518429
1535,0.0
1536,1051066.1983274837
1537,0.0
1538,840777.1506920133
1539,0.0
1540,182110.03996854835
1541,0.0
1542,104574.78545970876
1543,0.0
1544,1161454.83657434
1545,0.0
1546,374428.9181394798
1547,0.0
1548,897809.2140930861
1549,0.0
1550,669651.5077740534
1551,0.0
1552,505906.73024727505
1553,0.0
1554,68090.32314360097
1555,15389.898596563584
2,1, 1, 1, 0, 2, 0.00,60.00,Sunday
7,0.0
8,0.0
9,0.0
10,0.0
11,0.0
12,0.0
13,0.0
14,0.0
15,0.0
16,0.0
17,0.0
18,0.0
547,0.0
548,0.0
549,0.0
550,0.0
551,0.0
552,0.0
553,0.0
554,0.0
555,0.0
556,0.0
557,0.0
558,0.0
559,0.0
560,136939.64550769895
561,0.0
562,327551.7547972477
563,0.0
564,176681.04873570355
565,0.0
566,123015.8542507556
567,0.0
568,136795.242396489
569,0.0
570,152825.29712308956
571,0.0
572,13110.04798063565
573,0.0
574,133538.33408994188
575,0.0
576,146312.50114710749
577,0.0
578,146035.96959201719
579,0.0
580,42939.63557295079
581,0.0
582,146201.54672725535
583,0.0
584,43519.68084756783
585,0.0
586,174212.86226775038
587,0.0
588,180463.84150384036
589,0.0
590,114049.94448072282
591,0.0
592,63673.349930528224
593,0.0
594,163596.3859633971
595,0.0
596,102316.84831254605
597,0.0
598,47786.22879260108
599,0.0
600,245321.0191209622
601,0.0
602,146928.71848277044
603,0.0
604,133043.2781914937
605,0.0
606,256226.02254020438
607,13237.449260979687
608,-7125.39399018121
609,0.0
610,95167.80788809005
611,5411.840271426629
612,6222.454107184919
613,64.99950722767878
614,0.0
615,-325774.7480775899
616,0.0
617,65975.28566276927
618,0.0
619,79323.72879627816
620,0.0
621,78776.88205916183
622,2360.95474884549
623,-764.3538278479293
624,3723.96863350063
625,21799.253825014817
626,266500.5900704738
627,35694.43670282426
628,0.0
629,13179.738411936774
630,10168.481095902689
631,5730.357308091428
632,0.0
633,8587.355721312733
634,-32421.07805840272
635,48870.48750441144
636,6430.837398636948
637,0.0
638,-131618.67858081754
639,0.0
640,59466.7533153524
641,-2812.00953791809
642,0.0
643,16995.755459784123
644,116132.30254053074
645,10403.842558626162
646,28189.60609286227
647,0.0
648,26409.243117481183
649,0.0
650,106704.987085473
651,0.0
652,5957.770312590723
653,12058.460613962618
654,-145.0911034982645
655,-319.260121573483
656,-6892.489497618187
657,-13974.538602921224
658,-1416.361575512815
659,4995.498039500001
660,1169.2239221357739
661,0.0
662,-173392.23867245366
663,17221.945581081396
664,-6353.749956944674
665,0.0
666,7966.3359656160459
667,162553.1493340418
668,22637.973813644792
669,0.0
670,-104158.0913711886
671,0.0
672,-21040.668393320822
673,20542.408727659076
674,0.0
675,110187.82573538088
676,0.0
677,8895.37101264271
678,110219.63519409868
679,9176.130759544989
680,1051.675069143951
681,1559.6768703008575
682,-6912.617513663288
683,0.0
684,31842.76448683092
685,5432.05663537728
686,3704.3675314493505
687,530.5349715937567
688,25018.422881744227
689,-2258.957268262673
690,-5677.663410865452
691,0.0
692,160252.29067077809