Program Version,EnergyPlus, Version 9.3.0-baff08990c, YMD=2021.04.24 20:46
1,5,Environment Title[],Latitude[deg],Longitude[deg],Time Zone[],Elevation[m]
2,8,Day of Simulation[],Month[],Day of Month[],DST Indicator[1=yes 0=no],Hour[],StartMinute[],EndMinute[],DayType
3,5,Cumulative Day of Simulation[],Month[],Day of Month[],DST Indicator[1=yes 0=no],DayType  ! When Daily Report Variables Requested
4,2,Cumulative Days of Simulation[],Month[]  ! When Monthly Report Variables Requested
5,1,Cumulative Days of Simulation[] ! When Run Period Report Variables Requested
6,1,Calendar Year of Simulation[] ! When Annual Report Variables Requested
7,1,ROOM_27D9EB69,Zone People Total Heating Energy [J] !Hourly
8,1,ROOM_284587BD,Zone People Total Heating Energy [J] !Hourly
9,1,ROOM_33817ADB,Zone People Total Heating Energy [J] !Hourly
10,1,ROOM_565CD5D1,Zone People Total Heating Energy [J] !Hourly
11,1,ROOM_6EE5FCA0,Zone People Total Heating Energy [J] !Hourly
12,1,ROOM_808679B7,Zone People Total Heating Energy [J] !Hourly
13,1,ROOM_AC45A40E,Zone People Total Heating Energy [J] !Hourly
14,1,ROOM_C20964E2,Zone People Total Heating Energy [J] !Hourly
15,1,ROOM_D7B0B498,Zone People Total Heating Energy [J] !Hourly
16,1,ROOM_D8C8FBA3,Zone People Total Heating Energy [J] !Hourly
17,1,ROOM_F346C30E,Zone People Total Heating Energy [J] !Hourly
18,1,ROOM_F38D26AC,Zone People Total Heating Energy [J] !Hourly
547,1,ROOM_27D9EB69,Zone Windows Total Transmitted Solar Radiation Energy [J] !Hourly
548,1,ROOM_284587BD,Zone Windows Total Transmitted Solar Radiation Energy [J] !Hourly
549,1,ROOM_33817ADB,Zone Windows Total Transmitted Solar Radiation Energy [J] !Hourly
550,1,ROOM_565CD5D1,Zone Windows Total Transmitted Solar Radiation Energy [J] !Hourly
551,1,ROOM_6EE5FCA0,Zone Windows Total Transmitted Solar Radiation Energy [J] !Hourly
552,1,ROOM_808679B7,Zone Windows Total Transmitted Solar Radiation Energy [J] !Hourly
553,1,ROOM_AC45A40E,Zone Windows Total Transmitted Solar Radiation Energy [J] !Hourly
554,1,ROOM_C20964E2,Zone Windows Total Transmitted Solar Radiation Energy [J] !Hourly
555,1,ROOM_D7B0B498,Zone Windows Total Transmitted Solar Radiation Energy [J] !Hourly
556,1,ROOM_D8C8FBA3,Zone Windows Total Transmitted Solar Radiation Energy [J] !Hourly
557,1,ROOM_F346C30E,Zone Windows Total Transmitted Solar Radiation Energy [J] !Hourly
558,1,ROOM_F38D26AC,Zone Windows Total Transmitted Solar Radiation Energy [J] !Hourly
559,1,ROOM_27D9EB69..FACE4_GLZ1,Surface Window Heat Gain Energy [J] !Hourly
560,1,ROOM_27D9EB69..FACE4_GLZ1,Surface Window Heat Loss Energy [J] !Hourly
561,1,ROOM_284587BD..FACE1_GLZ1,Surface Window Heat Gain Energy [J] !Hourly
562,1,ROOM_284587BD..FACE1_GLZ1,Surface Window Heat Loss Energy [J] !Hourly
563,1,ROOM_284587BD..FACE4_GLZ1,Surface Window Heat Gain Energy [J] !Hourly
564,1,ROOM_284587BD..FACE4_GLZ1,Surface Window Heat Loss Energy [J] !Hourly
565,1,ROOM_33817ADB..FACE2_GLZ1,Surface Window Heat Gain Energy [J] !Hourly
566,1,ROOM_33817ADB..FACE2_GLZ1,Surface Window Heat Loss Energy [J] !Hourly
567,1,ROOM_33817ADB..FACE3_GLZ1,Surface Window Heat Gain Energy [J] !Hourly
568,1,ROOM_33817ADB..FACE3_GLZ1,Surface Window Heat Loss Energy [J] !Hourly
569,1,ROOM_33817ADB..FACE4_GLZ1,Surface Window Heat Gain Energy [J] !Hourly
570,1,ROOM_33817ADB..FACE4_GLZ1,Surface Window Heat Loss Energy [J] !Hourly
571,1,ROOM_565CD5D1..FACE1_GLZ1,Surface Window Heat Gain Energy [J] !Hourly
572,1,ROOM_565CD5D1..FACE1_GLZ1,Surface Window Heat Loss Energy [J] !Hourly
573,1,ROOM_565CD5D1..FACE2_GLZ1,Surface Window Heat Gain Energy [J] !Hourly
574,1,ROOM_565CD5D1..FACE2_GLZ1,Surface Window Heat Loss Energy [J] !Hourly
575,1,ROOM_565CD5D1..FACE3_GLZ1,Surface Window Heat Gain Energy [J] !Hourly
576,1,ROOM_565CD5D1..FACE3_GLZ1,Surface Window Heat Loss Energy [J] !Hourly
577,1,ROOM_565CD5D1..FACE4_GLZ1,Surface Window Heat Gain Energy [J] !Hourly
578,1,ROOM_565CD5D1..FACE4_GLZ1,Surface Window Heat Loss Energy [J] !Hourly
579,1,ROOM_6EE5FCA0..FACE1_GLZ1,Surface Window Heat Gain Energy [J] !Hourly
580,1,ROOM_6EE5FCA0..FACE1_GLZ1,Surface Window Heat Loss Energy [J] !Hourly
581,1,ROOM_808679B7..FACE1_GLZ1,Surface Window Heat Gain Energy [J] !Hourly
582,1,ROOM_808679B7..FACE1_GLZ1,Surface Window Heat Loss Energy [J] !Hourly
583,1,ROOM_808679B7..FACE2_GLZ1,Surface Window Heat Gain Energy [J] !Hourly
584,1,ROOM_808679B7..FACE2_GLZ1,Surface Window Heat Loss Energy [J] !Hourly
585,1,ROOM_808679B7..FACE4_GLZ1,Surface Window Heat Gain Energy [J] !Hourly
586,1,ROOM_808679B7..FACE4_GLZ1,Surface Window Heat Loss Energy [J] !Hourly
587,1,ROOM_AC45A40E..FACE4_GLZ1,Surface Window Heat Gain Energy [J] !Hourly
588,1,ROOM_AC45A40E..FACE4_GLZ1,Surface Window Heat Loss Energy [J] !Hourly
589,1,ROOM_C20964E2..FACE2_GLZ1,Surface Window Heat Gain Energy [J] !Hourly
590,1,ROOM_C20964E2..FACE2_GLZ1,Surface Window Heat Loss Energy [J] !Hourly
591,1,ROOM_C20964E2..FACE3_GLZ1,Surface Window Heat Gain Energy [J] !Hourly
592,1,ROOM_C20964E2..FACE3_GLZ1,Surface Window Heat Loss Energy [J] !Hourly
593,1,ROOM_D8C8FBA3..FACE3_GLZ1,Surface Window Heat Gain Energy [J] !Hourly
594,1,ROOM_D8C8FBA3..FACE3_GLZ1,Surface Window Heat Loss Energy [J] !Hourly
595,1,ROOM_F346C30E..FACE1_GLZ1,Surface Window Heat Gain Energy [J] !Hourly
596,1,ROOM_F346C30E..FACE1_GLZ1,Surface Window Heat Loss Energy [J] !Hourly
597,1,ROOM_F346C30E..FACE4_GLZ1,Surface Window Heat Gain Energy [J] !Hourly
598,1,ROOM_F346C30E..FACE4_GLZ1,Surface Window Heat Loss Energy [J] !Hourly
599,1,ROOM_F38D26AC..FACE1_GLZ1,Surface Window Heat Gain Energy [J] !Hourly
600,1,ROOM_F38D26AC..FACE1_GLZ1,Surface Window Heat Loss Energy [J] !Hourly
601,1,ROOM_F38D26AC..FACE2_GLZ1,Surface Window Heat Gain Energy [J] !Hourly
602,1,ROOM_F38D26AC..FACE2_GLZ1,Surface Window Heat Loss Energy [J] !Hourly
603,1,ROOM_F38D26AC..FACE4_GLZ1,Surface Window Heat Gain Energy [J] !Hourly
604,1,ROOM_F38D26AC..FACE4_GLZ1,Surface Window Heat Loss Energy [J] !Hourly
605,1,ROOM_F38D26AC..FACE5_GLZ1,Surface Window Heat Gain Energy [J] !Hourly
606,1,ROOM_F38D26AC..FACE5_GLZ1,Surface Window Heat Loss Energy [J] !Hourly
607,1,ROOM_27D9EB69..FACE1,Surface Average Face Conduction Heat Transfer Energy [J] !Hourly
608,1,ROOM_27D9EB69..FACE2,Surface Average Face Conduction Heat Transfer Energy [J] !Hourly
609,1,ROOM_27D9EB69..FACE3,Surface Average Face Conduction Heat Transfer Energy [J] !Hourly
610,1,ROOM_27D9EB69..FACE4,Surface Outside Face Solar Radiation Heat Gain Energy [J] !Hourly
611,1,ROOM_27D9EB69..FACE4,Surface Average Face Conduction Heat Transfer Energy [J] !Hourly
612,1,ROOM_27D9EB69..FACE5,Surface Average Face Conduction Heat Transfer Energy [J] !Hourly
613,1,ROOM_27D9EB69..FACE0,Surface Average Face Conduction Heat Transfer Energy [J] !Hourly
614,1,ROOM_27D9EB69..FACE6,Surface Average Face Conduction Heat Transfer Energy [J] !Hourly
615,1,ROOM_284587BD..FACE1,Surface Outside Face Solar Radiation Heat Gain Energy [J] !Hourly
616,1,ROOM_284587BD..FACE1,Surface Average Face Conduction Heat Transfer Energy [J] !Hourly
617,1,ROOM_284587BD..FACE2,Surface Average Face Conduction Heat Transfer Energy [J] !Hourly
618,1,ROOM_284587BD..FACE3,Surface Average Face Conduction Heat Transfer Energy [J] !Hourly
619,1,ROOM_284587BD..FACE4,Surface Outside Face Solar Radiation Heat Gain Energy [J] !Hourly
620,1,ROOM_284587BD..FACE4,Surface Average Face Conduction Heat Transfer Energy [J] !Hourly
621,1,ROOM_284587BD..FACE5,Surface Average Face Conduction Heat Transfer Energy [J] !Hourly
622,1,ROOM_284587BD..FACE0,Surface Average Face Conduction Heat Transfer Energy [J] !Hourly
623,1,ROOM_284587BD..FACE6,Surface Average Face Conduction Heat Transfer Energy [J] !Hourly
624,1,ROOM_33817ADB..FACE1,Surface Average Face Conduction Heat Transfer Energy [J] !Hourly
625,1,ROOM_33817ADB..FACE2,Surface Outside Face Solar Radiation Heat Gain Energy [J] !Hourly
626,1,ROOM_33817ADB..FACE2,Surface Average Face Conduction Heat Transfer Energy [J] !Hourly
627,1,ROOM_33817ADB..FACE3,Surface Outside Face Solar Radiation Heat Gain Energy [J] !Hourly
628,1,ROOM_33817ADB..FACE3,Surface Average Face Conduction Heat Transfer Energy [J] !Hourly
629,1,ROOM_33817ADB..FACE4,Surface Outside Face Solar Radiation Heat Gain Energy [J] !Hourly
630,1,ROOM_33817ADB..FACE4,Surface Average Face Conduction Heat Transfer Energy [J] !Hourly
631,1,ROOM_33817ADB..FACE0,Surface Average Face Conduction Heat Transfer Energy [J] !Hourly
632,1,ROOM_33817ADB..FACE5,Surface Average Face Conduction Heat Transfer Energy [J] !Hourly
633,1,ROOM_565CD5D1..FACE1,Surface Outside Face Solar Radiation Heat Gain Energy [J] !Hourly
634,1,ROOM_565CD5D1..FACE1,Surface Average Face Conduction Heat Transfer Energy [J] !Hourly
635,1,ROOM_565CD5D1..FACE2,Surface Outside Face Solar Radiation Heat Gain Energy [J] !Hourly
636,1,ROOM_565CD5D1..FACE2,Surface Average Face Conduction Heat Transfer Energy [J] !Hourly
637,1,ROOM_565CD5D1..FACE3,Surface Outside Face Solar Radiation Heat Gain Energy [J] !Hourly
638,1,ROOM_565CD5D1..FACE3,Surface Average Face Conduction Heat Transfer Energy [J] !Hourly
639,1,ROOM_565CD5D1..FACE4,Surface Outside Face Solar Radiation Heat Gain Energy [J] !Hourly
640,1,ROOM_565CD5D1..FACE4,Surface Average Face Conduction Heat Transfer Energy [J] !Hourly
641,1,ROOM_565CD5D1..FACE5,Surface Average Face Conduction Heat Transfer Energy [J] !Hourly
642,1,ROOM_565CD5D1..FACE6,Surface Average Face Conduction Heat Transfer Energy [J] !Hourly
643,1,ROOM_565CD5D1..FACE7,Surface Average Face Conduction Heat Transfer Energy [J] !Hourly
644,1,ROOM_565CD5D1..FACE8,Surface Average Face Conduction Heat Transfer Energy [J] !Hourly
645,1,ROOM_565CD5D1..FACE0,Surface Average Face Conduction Heat Transfer Energy [J] !Hourly
646,1,ROOM_565CD5D1..FACE9,Surface Average Face Conduction Heat Transfer Energy [J] !Hourly
647,1,ROOM_6EE5FCA0..FACE1,Surface Outside Face Solar Radiation Heat Gain Energy [J] !Hourly
648,1,ROOM_6EE5FCA0..FACE1,Surface Average Face Conduction Heat Transfer Energy [J] !Hourly
649,1,ROOM_6EE5FCA0..FACE2,Surface Average Face Conduction Heat Transfer Energy [J] !Hourly
650,1,ROOM_6EE5FCA0..FACE3,Surface Average Face Conduction Heat Transfer Energy [J] !Hourly
651,1,ROOM_6EE5FCA0..FACE4,Surface Average Face Conduction Heat Transfer Energy [J] !Hourly
652,1,ROOM_6EE5FCA0..FACE0,Surface Average Face Conduction Heat Transfer Energy [J] !Hourly
653,1,ROOM_6EE5FCA0..FACE5,Surface Average Face Conduction Heat Transfer Energy [J] !Hourly
654,1,ROOM_808679B7..FACE1,Surface Outside Face Solar Radiation Heat Gain Energy [J] !Hourly
655,1,ROOM_808679B7..FACE1,Surface Average Face Conduction Heat Transfer Energy [J] !Hourly
656,1,ROOM_808679B7..FACE2,Surface Outside Face Solar Radiation Heat Gain Energy [J] !Hourly
657,1,ROOM_808679B7..FACE2,Surface Average Face Conduction Heat Transfer Energy [J] !Hourly
658,1,ROOM_808679B7..FACE3,Surface Average Face Conduction Heat Transfer Energy [J] !Hourly
659,1,ROOM_808679B7..FACE4,Surface Outside Face Solar Radiation Heat Gain Energy [J] !Hourly
660,1,ROOM_808679B7..FACE4,Surface Average Face Conduction Heat Transfer Energy [J] !Hourly
661,1,ROOM_808679B7..FACE0,Surface Average Face Conduction Heat Transfer Energy [J] !Hourly
662,1,ROOM_808679B7..FACE5,Surface Average Face Conduction Heat Transfer Energy [J] !Hourly
663,1,ROOM_AC45A40E..FACE1,Surface Average Face Conduction Heat Transfer Energy [J] !Hourly
664,1,ROOM_AC45A40E..FACE2,Surface Average Face Conduction Heat Transfer Energy [J] !Hourly
665,1,ROOM_AC45A40E..FACE3,Surface Average Face Conduction Heat Transfer Energy [J] !Hourly
666,1,ROOM_AC45A40E..FACE4,Surface Outside Face Solar Radiation Heat Gain Energy [J] !Hourly
667,1,ROOM_AC45A40E..FACE4,Surface Average Face Conduction Heat Transfer Energy [J] !Hourly
668,1,ROOM_AC45A40E..FACE5,Surface Average Face Conduction Heat Transfer Energy [J] !Hourly
669,1,ROOM_AC45A40E..FACE6,Surface Average Face Conduction Heat Transfer Energy [J] !Hourly
670,1,ROOM_AC45A40E..FACE0,Surface Average Face Conduction Heat Transfer Energy [J] !Hourly
671,1,ROOM_AC45A40E..FACE7,Surface Average Face Conduction Heat Transfer Energy [J] !Hourly
672,1,ROOM_C20964E2..FACE1,Surface Average Face Conduction Heat Transfer Energy [J] !Hourly
673,1,ROOM_C20964E2..FACE2,Surface Outside Face Solar Radiation Heat Gain Energy [J] !Hourly
674,1,ROOM_C20964E2..FACE2,Surface Average Face Conduction Heat Transfer Energy [J] !Hourly
675,1,ROOM_C20964E2..FACE3,Surface Outside Face Solar Radiation Heat Gain Energy [J] !Hourly
676,1,ROOM_C20964E2..FACE3,Surface Average Face Conduction Heat Transfer Energy [J] !Hourly
677,1,ROOM_C20964E2..FACE4,Surface Average Face Conduction Heat Transfer Energy [J] !Hourly
678,1,ROOM_C20964E2..FACE5,Surface Average Face Conduction Heat Transfer Energy [J] !Hourly
679,1,ROOM_C20964E2..FACE0,Surface Average Face Conduction Heat Transfer Energy [J] !Hourly
680,1,ROOM_C20964E2..FACE6,Surface Average Face Conduction Heat Transfer Energy [J] !Hourly
681,1,ROOM_D7B0B498..FACE1,Surface Average Face Conduction Heat Transfer Energy [J] !Hourly
682,1,ROOM_D7B0B498..FACE2,Surface Average Face Conduction Heat Transfer Energy [J] !Hourly
683,1,ROOM_D7B0B498..FACE3,Surface Average Face Conduction Heat Transfer Energy [J] !Hourly
684,1,ROOM_D7B0B498..FACE4,Surface Average Face Conduction Heat Transfer Energy [J] !Hourly
685,1,ROOM_D7B0B498..FACE0,Surface Average Face Conduction Heat Transfer Energy [J] !Hourly
686,1,ROOM_D7B0B498..FACE5,Surface Average Face Conduction Heat Transfer Energy [J] !Hourly
687,1,ROOM_D8C8FBA3..FACE1,Surface Average Face Conduction Heat Transfer Energy [J] !Hourly
688,1,ROOM_D8C8FBA3..FACE2,Surface Average Face Conduction Heat Transfer Energy [J] !Hourly
689,1,ROOM_D8C8FBA3..FACE3,Surface Outside Face Solar Radiation Heat Gain Energy [J] !Hourly
690,1,ROOM_D8C8FBA3..FACE3,Surface Average Face Conduction Heat Transfer Energy [J] !Hourly
691,1,ROOM_D8C8FBA3..FACE4,Surface Average Face Conduction Heat Transfer Energy [J] !Hourly
692,1,ROOM_D8C8FBA3..FACE0,Surface Average Face Conduction Heat Transfer Energy [J] !Hourly
693,1,ROOM_D8C8FBA3..FACE5,Surface Average Face Conduction Heat Transfer Energy [J] !Hourly
694,1,ROOM_F346C30E..FACE1,Surface Outside Face Solar Radiation Heat Gain Energy [J] !Hourly
695,1,ROOM_F346C30E..FACE1,Surface Average Face Conduction Heat Transfer Energy [J] !Hourly
696,1,ROOM_F346C30E..FACE2,Surface Average Face Conduction Heat Transfer Energy [J] !Hourly
697,1,ROOM_F346C30E..FACE3,Surface Average Face Conduction Heat Transfer Energy [J] !Hourly
698,1,ROOM_F346C30E..FACE4,Surface Outside Face Solar Radiation Heat Gain Energy [J] !Hourly
699,1,ROOM_F346C30E..FACE4,Surface Average Face Conduction Heat Transfer Energy [J] !Hourly
700,1,ROOM_F346C30E..FACE0,Surface Average Face Conduction Heat Transfer Energy [J] !Hourly
701,1,ROOM_F346C30E..FACE5,Surface Average Face Conduction Heat Transfer Energy [J] !Hourly
702,1,ROOM_F38D26AC..FACE1,Surface Outside Face Solar Radiation Heat Gain Energy [J] !Hourly
703,1,ROOM_F38D26AC..FACE1,Surface Average Face Conduction Heat Transfer Energy [J] !Hourly
704,1,ROOM_F38D26AC..FACE2,Surface Outside Face Solar Radiation Heat Gain Energy [J] !Hourly
705,1,ROOM_F38D26AC..FACE2,Surface Average Face Conduction Heat Transfer Energy [J] !Hourly
706,1,ROOM_F38D26AC..FACE3,Surface Average Face Conduction Heat Transfer Energy [J] !Hourly
707,1,ROOM_F38D26AC..FACE4,Surface Outside Face Solar Radiation Heat Gain Energy [J] !Hourly
708,1,ROOM_F38D26AC..FACE4,Surface Average Face Conduction Heat Transfer Energy [J] !Hourly
709,1,ROOM_F38D26AC..FACE5,Surface Outside Face Solar Radiation Heat Gain Energy [J] !Hourly
710,1,ROOM_F38D26AC..FACE5,Surface Average Face Conduction Heat Transfer Energy [J] !Hourly
711,1,ROOM_F38D26AC..FACE0,Surface Average Face Conduction Heat Transfer Energy [J] !Hourly
712,1,ROOM_F38D26AC..FACE6,Surface Average Face Conduction Heat Transfer Energy [J] !Hourly
713,1,ROOM_27D9EB69,Zone Infiltration Total Heat Loss Energy [J] !Hourly
714,1,ROOM_27D9EB69,Zone Infiltration Total Heat Gain Energy [J] !Hourly
715,1,ROOM_284587BD,Zone Infiltration Total Heat Loss Energy [J] !Hourly
716,1,ROOM_284587BD,Zone Infiltration Total Heat Gain Energy [J] !Hourly
717,1,ROOM_33817ADB,Zone Infiltration Total Heat Loss Energy [J] !Hourly
718,1,ROOM_33817ADB,Zone Infiltration Total Heat Gain Energy [J] !Hourly
719,1,ROOM_565CD5D1,Zone Infiltration Total Heat Loss Energy [J] !Hourly
720,1,ROOM_565CD5D1,Zone Infiltration Total Heat Gain Energy [J] !Hourly
721,1,ROOM_6EE5FCA0,Zone Infiltration Total Heat Loss Energy [J] !Hourly
722,1,ROOM_6EE5FCA0,Zone Infiltration Total Heat Gain Energy [J] !Hourly
723,1,ROOM_808679B7,Zone Infiltration Total Heat Loss Energy [J] !Hourly
724,1,ROOM_808679B7,Zone Infiltration Total Heat Gain Energy [J] !Hourly
725,1,ROOM_AC45A40E,Zone Infiltration Total Heat Loss Energy [J] !Hourly
726,1,ROOM_AC45A40E,Zone Infiltration Total Heat Gain Energy [J] !Hourly
727,1,ROOM_C20964E2,Zone Infiltration Total Heat Loss Energy [J] !Hourly
728,1,ROOM_C20964E2,Zone Infiltration Total Heat Gain Energy [J] !Hourly
729,1,ROOM_D7B0B498,Zone Infiltration Total Heat Loss Energy [J] !Hourly
730,1,ROOM_D7B0B498,Zone Infiltration Total Heat Gain Energy [J] !Hourly
731,1,ROOM_D8C8FBA3,Zone Infiltration Total Heat Loss Energy [J] !Hourly
732,1,ROOM_D8C8FBA3,Zone Infiltration Total Heat Gain Energy [J] !Hourly
733,1,ROOM_F346C30E,Zone Infiltration Total Heat Loss Energy [J] !Hourly
734,1,ROOM_F346C30E,Zone Infiltration Total Heat Gain Energy [J] !Hourly
735,1,ROOM_F38D26AC,Zone Infiltration Total Heat Loss Energy [J] !Hourly
736,1,ROOM_F38D26AC,Zone Infiltration Total Heat Gain Energy [J] !Hourly
1412,1,ROOM_27D9EB69 IDEAL LOADS AIR SYSTEM,Zone Ideal Loads Supply Air Total Heating Energy [J] !Hourly
1461,1,ROOM_27D9EB69 IDEAL LOADS AIR SYSTEM,Zone Ideal Loads Supply Air Total Cooling Energy [J] !Hourly
1510,1,ROOM_27D9EB69 IDEAL LOADS AIR SYSTEM,Zone Ideal Loads Zone Total Heating Energy [J] !Hourly
1511,1,ROOM_27D9EB69 IDEAL LOADS AIR SYSTEM,Zone Ideal Loads Zone Total Cooling Energy [J] !Hourly
1512,1,ROOM_284587BD IDEAL LOADS AIR SYSTEM,Zone Ideal Loads Supply Air Total Heating Energy [J] !Hourly
1513,1,ROOM_284587BD IDEAL LOADS AIR SYSTEM,Zone Ideal Loads Supply Air Total Cooling Energy [J] !Hourly
1514,1,ROOM_284587BD IDEAL LOADS AIR SYSTEM,Zone Ideal Loads Zone Total Heating Energy [J] !Hourly
1515,1,ROOM_284587BD IDEAL LOADS AIR SYSTEM,Zone Ideal Loads Zone Total Cooling Energy [J] !Hourly
1516,1,ROOM_33817ADB IDEAL LOADS AIR SYSTEM,Zone Ideal Loads Supply Air Total Heating Energy [J] !Hourly
1517,1,ROOM_33817ADB IDEAL LOADS AIR SYSTEM,Zone Ideal Loads Supply Air Total Cooling Energy [J] !Hourly
1518,1,ROOM_33817ADB IDEAL LOADS AIR SYSTEM,Zone Ideal Loads Zone Total Heating Energy [J] !Hourly
1519,1,ROOM_33817ADB IDEAL LOADS AIR SYSTEM,Zone Ideal Loads Zone Total Cooling Energy [J] !Hourly
1520,1,ROOM_565CD5D1 IDEAL LOADS AIR SYSTEM,Zone Ideal Loads Supply Air Total Heating Energy [J] !Hourly
1521,1,ROOM_565CD5D1 IDEAL LOADS AIR SYSTEM,Zone Ideal Loads Supply Air Total Cooling Energy [J] !Hourly
1522,1,ROOM_565CD5D1 IDEAL LOADS AIR SYSTEM,Zone Ideal Loads Zone Total Heating Energy [J] !Hourly
1523,1,ROOM_565CD5D1 IDEAL LOADS AIR SYSTEM,Zone Ideal Loads Zone Total Cooling Energy [J] !Hourly
1524,1,ROOM_6EE5FCA0 IDEAL LOADS AIR SYSTEM,Zone Ideal Loads Supply Air Total Heating Energy [J] !Hourly
1525,1,ROOM_6EE5FCA0 IDEAL LOADS AIR SYSTEM,Zone Ideal Loads Supply Air Total Cooling Energy [J] !Hourly
1526,1,ROOM_6EE5FCA0 IDEAL LOADS AIR SYSTEM,Zone Ideal Loads Zone Total Heating Energy [J] !Hourly
1527,1,ROOM_6EE5FCA0 IDEAL LOADS AIR SYSTEM,Zone Ideal Loads Zone Total Cooling Energy [J] !Hourly
1528,1,ROOM_808679B7 IDEAL LOADS AIR SYSTEM,Zone Ideal Loads Supply Air Total Heating Energy [J] !Hourly
1529,1,ROOM_808679B7 IDEAL LOADS AIR SYSTEM,Zone Ideal Loads Supply Air Total Cooling Energy [J] !Hourly
1530,1,ROOM_808679B7 IDEAL LOADS AIR SYSTEM,Zone Ideal Loads Zone Total Heating Energy [J] !Hourly
1531,1,ROOM_808679B7 IDEAL LOADS AIR SYSTEM,Zone Ideal Loads Zone Total Cooling Energy [J] !Hourly
1532,1,ROOM_AC45A40E IDEAL LOADS AIR SYSTEM,Zone Ideal Loads Supply Air Total Heating Energy [J] !Hourly
1533,1,ROOM_AC45A40E IDEAL LOADS AIR SYSTEM,Zone Ideal Loads Supply Air Total Cooling Energy [J] !Hourly
1534,1,ROOM_AC45A40E IDEAL LOADS AIR SYSTEM,Zone Ideal Loads Zone Total Heating Energy [J] !Hourly
1535,1,ROOM_AC45A40E IDEAL LOADS AIR SYSTEM,Zone Ideal Loads Zone Total Cooling Energy [J] !Hourly
1536,1,ROOM_C20964E2 IDEAL LOADS AIR SYSTEM,Zone Ideal Loads Supply Air Total Heating Energy [J] !Hourly
1537,1,ROOM_C20964E2 IDEAL LOADS AIR SYSTEM,Zone Ideal Loads Supply Air Total Cooling Energy [J] !Hourly
1538,1,ROOM_C20964E2 IDEAL LOADS AIR SYSTEM,Zone Ideal Loads Zone Total Heating Energy [J] !Hourly
1539,1,ROOM_C20964E2 IDEAL LOADS AIR SYSTEM,Zone Ideal Loads Zone Total Cooling Energy [J] !Hourly
1540,1,ROOM_D7B0B498 IDEAL LOADS AIR SYSTEM,Zone Ideal Loads Supply Air Total Heating Energy [J] !Hourly
1541,1,ROOM_D7B0B498 IDEAL LOADS AIR SYSTEM,Zone Ideal Loads Supply Air Total Cooling Energy [J] !Hourly
1542,1,ROOM_D7B0B498 IDEAL LOADS AIR SYSTEM,Zone Ideal Loads Zone Total Heating Energy [J] !Hourly
1543,1,ROOM_D7B0B498 IDEAL LOADS AIR SYSTEM,Zone Ideal Loads Zone Total Cooling Energy [J] !Hourly
1544,1,ROOM_D8C8FBA3 IDEAL LOADS AIR SYSTEM,Zone Ideal Loads Supply Air Total Heating Energy [J] !Hourly
1545,1,ROOM_D8C8FBA3 IDEAL LOADS AIR SYSTEM,Zone Ideal Loads Supply Air Total Cooling Energy [J] !Hourly
1546,1,ROOM_D8C8FBA3 IDEAL LOADS AIR SYSTEM,Zone Ideal Loads Zone Total Heating Energy [J] !Hourly
1547,1,ROOM_D8C8FBA3 IDEAL LOADS AIR SYSTEM,Zone Ideal Loads Zone Total Cooling Energy [J] !Hourly
1548,1,ROOM_F346C30E IDEAL LOADS AIR SYSTEM,Zone Ideal Loads Supply Air Total Heating Energy [J] !Hourly
1549,1,ROOM_F346C30E IDEAL LOADS AIR SYSTEM,Zone Ideal Loads Supply Air Total Cooling Energy [J] !Hourly
1550,1,ROOM_F346C30E IDEAL LOADS AIR SYSTEM,Zone Ideal Loads Zone Total Heating Energy [J] !Hourly
1551,1,ROOM_F346C30E IDEAL LOADS AIR SYSTEM,Zone Ideal Loads Zone Total Cooling Energy [J] !Hourly
1552,1,ROOM_F38D26AC IDEAL LOADS AIR SYSTEM,Zone Ideal Loads Supply Air Total Heating Energy [J] !Hourly
1553,1,ROOM_F38D26AC IDEAL LOADS AIR SYSTEM,Zone Ideal Loads Supply Air Total Cooling Energy [J] !Hourly
1554,1,ROOM_F38D26AC IDEAL LOADS AIR SYSTEM,Zone Ideal Loads Zone Total Heating Energy [J] !Hourly
1555,1,ROOM_F38D26AC IDEAL LOADS AIR SYSTEM,Zone Ideal Loads Zone Total Cooling Energy [J] !Hourly
End of Data Dictionary
1,RUN PERIOD 1,  42.37, -71.02,  -5.00,   6.00
2,1, 1, 1, 0, 1, 0.00,60.00,Sunday
7,0.0
8,0.0
9,0.0
10,0.0
11,0.0
12,0.0
13,0.0
14,0.0
15,0.0
16,0.0
17,0.0
18,0.0
547,0.0
548,0.0
549,0.0
550,0.0
551,0.0
552,0.0
553,0.0
554,0.0
555,0.0
556,0.0
557,0.0
558,0.0
559,0.0
560,61278.0834642536
561,0.0
562,196266.55351525965
563,0.0
564,16594.613458042517
565,0.0
566,55399.80483536944
567,0.0
568,189279.66886421178
569,0.0
570,56387.26081428079
571,0.0
572,420325.921120732
573,0.0
574,226687.38286390558
575,0.0
576,157631.9590812254
577,0.0
578,175120.50865922308
579,0.0
580,326551.76328190977
581,0.0
582,172379.8444308955
583,0.0
584,188920.28230256655
585,0.0
586,188679.74739315135
587,0.0
588,314564.8566257858
589,0.0
590,189831.68294322864
591,0.0
592,171915.47902889987
593,0.0
594,176511.8149113667
595,0.0
596,223040.55433598948
597,0.0
598,231207.07625465518
599,0.0
600,147101.13053612796
601,0.0
602,81861.27406299998
603,0.0
604,211319.89990439264
605,0.0
606,132140.83941037747
607,1544.6712192736259
608,2050.206926060282
609,-7122.460182751476
610,0.0
611,-26670.32696246323
612,6461.037261034054
613,4831.907374381966
614,942.218733694025
615,0.0
616,-184370.8837392028
617,12999.814737539822
618,6594.9221888468359
619,0.0
620,-6968.781123882872
621,-35194.79565453041
622,58683.36893200404
623,9402.02406159709
624,31042.773034499318
625,0.0
626,-29777.787220374077
627,0.0
628,-84116.76191203177
629,0.0
630,-55046.500549667486
631,17763.956252340653
632,962.406442209805
633,0.0
634,-789910.8892550375
635,0.0
636,-158390.5245862494
637,0.0
638,-71544.66424827112
639,0.0
640,-90468.22286067836
641,3160.4339774759389
642,-766.2131503525408
643,4097.282441970586
644,24391.347162130744
645,322837.9038948095
646,49325.10291320184
647,0.0
648,-596340.3510885164
649,-16505.326943972283
650,-19678.648038034396
651,-8829.060786500228
652,235303.91069224117
653,37715.275236887326
654,0.0
655,-328343.6672029088
656,0.0
657,-134439.78474795933
658,-3321.7933597037465
659,0.0
660,-180254.99752129217
661,143181.8232421089
662,16183.503643617492
663,28934.245849607847
664,-1307.8234553364274
665,-5525.140414711425
666,0.0
667,-139009.71821760413
668,-21853.99458148368
669,-4426.8700952160129
670,70831.35499131952
671,16132.718424992652
672,1015.1063886373651
673,0.0
674,-130377.40029780596
675,0.0
676,-76847.00333900872
677,4786.529830738943
678,7208.598986807871
679,36896.49186997853
680,3729.2098918074655
681,776.1813829013859
682,-7226.873709349994
683,-14710.418630493328
684,-1344.4616905921426
685,5502.872875875547
686,1540.4076370243452
687,15165.647993905379
688,-7387.776564040994
689,0.0
690,-77401.9697725848
691,6110.2845003866309
692,10319.974330090225
693,1094.5713598134074
694,0.0
695,-414807.6753139375
696,18868.20904062449
697,-6485.529513967256
698,0.0
699,-221029.90640522529
700,194338.14256160108
701,29581.978281492055
702,0.0
703,-270160.6380161825
704,0.0
705,-108005.54384787906
706,21981.41936427563
707,0.0
708,-100213.01205697583
709,0.0
710,-130053.84407261467
711,136436.64908020193
712,14569.105742658197
713,37816.688306973476
714,0.0
715,132588.13010924217
716,0.0
717,203450.0009182997
718,0.0
719,610916.0364381723
720,0.0
721,193065.00920814585
722,0.0
723,358652.7904696726
724,0.0
725,192512.70644104633
726,0.0
727,235111.6102326272
728,0.0
729,0.0
730,0.0
731,111944.14569255217
732,0.0
733,277503.019085106
734,0.0
735,376024.11708813029
736,0.0
1412,182110.03996854835
1461,0.0
1510,104574.78545970876
1511,0.0
1512,567758.3405764734
1513,0.0
1514,292725.28163106637
1515,0.0
1516,659460.9416925942
1517,0.0
1518,580546.9948440723
1519,0.0
1520,1990632.76500134
1521,0.0
1522,1050824.8522731586
1523,0.0
1524,505906.73024727505
1525,0.0
1526,68090.32314360097
1527,15389.898596563584
1528,1030689.7929994947
1529,0.0
1530,803754.1736639983
1531,0.0
1532,1161454.83657434
1533,0.0
1534,374428.9181394798
1535,0.0
1536,897809.2140930861
1537,0.0
1538,669651.5077740534
1539,0.0
1540,84616.0191192703
1541,0.0
1542,15009.010026186334
1543,0.0
1544,483488.8868245916
1545,0.0
1546,324438.2709864701
1547,0.0
1548,679948.0832912992
1549,0.0
1550,360579.3384518429
1551,0.0
1552,1051066.1983274837
1553,0.0
1554,840777.1506920133
1555,0.0
2,1, 1, 1, 0, 2, 0.00,60.00,Sunday
7,0.0
8,0.0
9,0.0
10,0.0
11,0.0
12,0.0
13,0.0
14,0.0
15,0.0
16,0.0
17,0.0
18,0.0
547,0.0
548,0.0
549,0.0
550,0.0
551,0.0
552,0.0
553,0.0
554,0.0
555,0.0
556,0.0
557,0.0
558,0.0
559,0.0
560,47786.22879260108
561,0.0
562,152825.29712308956
563,0.0
564,13110.04798063565
565,0.0
566,42939.63557295079
567,0.0
568,146201.54672725535
569,0.0
570,43519.68084756783
571,0.0
572,327551.7547972477
573,0.0
574,176681.04873570355
575,0.0
576,123015.8542507556
577,0.0
578,136795.242396489
579,0.0
580,256226.02254020438
581,0.0
582,133538.33408994188
583,0.0
584,146312.50114710749
585,0.0
586,146035.96959201719
587,0.0
588,245321.0191209622
589,0.0
590,146928.71848277044
591,0.0
592,133043.2781914937
593,0.0
594,136939.64550769895
595,0.0
596,174212.86226775038
597,0.0
598,180463.84150384036
599,0.0
600,114049.94448072282
601,0.0
602,63673.349930528224
603,0.0
604,163596.3859633971
605,0.0
606,102316.84831254605
607,1051.675069143951
608,1559.6768703008575
609,-6912.617513663288
610,0.0
611,31842.76448683092
612,5432.05663537728
613,3704.3675314493505
614,530.5349715937567
615,0.0
616,13179.738411936774
617,10168.481095902689
618,5730.357308091428
619,0.0
620,8587.355721312733
621,-32421.07805840272
622,48870.48750441144
623,6430.837398636948
624,28189.60609286227
625,0.0
626,26409.243117481183
627,0.0
628,106704.987085473
629,0.0
630,5957.770312590723
631,12058.460613962618
632,-145.0911034982645
633,0.0
634,-325774.7480775899
635,0.0
636,65975.28566276927
637,0.0
638,79323.72879627816
639,0.0
640,78776.88205916183
641,2360.95474884549
642,-764.3538278479293
643,3723.96863350063
644,21799.253825014817
645,266500.5900704738
646,35694.43670282426
647,0.0
648,-251095.2125265972
649,-15908.60068422271
650,-18195.80034254547
651,-9381.743955169728
652,200297.5250605231
653,29979.782960604094
654,0.0
655,-131618.67858081754
656,0.0
657,59466.7533153524
658,-2812.00953791809
659,0.0
660,16995.755459784123
661,116132.30254053074
662,10403.842558626162
663,25018.422881744227
664,-2258.957268262673
665,-5677.663410865452
666,0.0
667,160252.29067077809
668,-21322.82093310236
669,-5083.64706159739
670,58732.95197917948
671,11252.61716064436
672,241.07364674479607
673,0.0
674,65152.59420989268
675,0.0
676,94624.66839450132
677,4435.257459998997
678,6469.004231574519
679,25740.88300568691
680,1191.7779254915805
681,-319.260121573483
682,-6892.489497618187
683,-13974.538602921224
684,-1416.361575512815
685,4995.498039500001
686,1169.2239221357739
687,13237.449260979687
688,-7125.39399018121
689,0.0
690,95167.80788809005
691,5411.840271426629