Program Version,EnergyPlus, Version 9.3.0-baff08990c, YMD=2021.04.24 20:46
1,5,Environment Title[],Latitude[deg],Longitude[deg],Time Zone[],Elevation[m]
2,8,Day of Simulation[],Month[],Day of Month[],DST Indicator[1=yes 0=no],Hour[],StartMinute[],EndMinute[],DayType
3,5,Cumulative Day of Simulation[],Month[],Day of Month[],DST Indicator[1=yes 0=no],DayType  ! When Daily Report Variables Requested
4,2,Cumulative Days of Simulation[],Month[]  ! When Monthly Report Variables Requested
5,1,Cumulative Days of Simulation[] ! When Run Period Report Variables Requested
6,1,Calendar Year of Simulation[] ! When Annual Report Variables Requested
7,1,ROOM_4551A1BE,Zone People Total Heating Energy [J] !Hourly
8,1,ROOM_5245B8FB,Zone People Total Heating Energy [J] !Hourly
9,1,ROOM_6BDAFD1B,Zone People Total Heating Energy [J] !Hourly
10,1,ROOM_BC2FAB81,Zone People Total Heating Energy [J] !Hourly
11,1,ROOM_CF1F3D8B,Zone People Total Heating Energy [J] !Hourly
12,1,ROOM_F2BB9F6E,Zone People Total Heating Energy [J] !Hourly
313,1,ROOM_4551A1BE,Zone Windows Total Transmitted Solar Radiation Energy [J] !Hourly
314,1,ROOM_5245B8FB,Zone Windows Total Transmitted Solar Radiation Energy [J] !Hourly
315,1,ROOM_6BDAFD1B,Zone Windows Total Transmitted Solar Radiation Energy [J] !Hourly
316,1,ROOM_BC2FAB81,Zone Windows Total Transmitted Solar Radiation Energy [J] !Hourly
317,1,ROOM_CF1F3D8B,Zone Windows Total Transmitted Solar Radiation Energy [J] !Hourly
318,1,ROOM_F2BB9F6E,Zone Windows Total Transmitted Solar Radiation Energy [J] !Hourly
319,1,ROOM_4551A1BE..FACE3_GLZ1,Surface Window Heat Gain Energy [J] !Hourly
320,1,ROOM_4551A1BE..FACE3_GLZ1,Surface Window Heat Loss Energy [J] !Hourly
321,1,ROOM_5245B8FB..FACE4_GLZ1,Surface Window Heat Gain Energy [J] !Hourly
322,1,ROOM_5245B8FB..FACE4_GLZ1,Surface Window Heat Loss Energy [J] !Hourly
323,1,ROOM_5245B8FB..FACE5_GLZ1,Surface Window Heat Gain Energy [J] !Hourly
324,1,ROOM_5245B8FB..FACE5_GLZ1,Surface Window Heat Loss Energy [J] !Hourly
325,1,ROOM_6BDAFD1B..FACE3_GLZ1,Surface Window Heat Gain Energy [J] !Hourly
326,1,ROOM_6BDAFD1B..FACE3_GLZ1,Surface Window Heat Loss Energy [J] !Hourly
327,1,ROOM_6BDAFD1B..FACE4_GLZ1,Surface Window Heat Gain Energy [J] !Hourly
328,1,ROOM_6BDAFD1B..FACE4_GLZ1,Surface Window Heat Loss Energy [J] !Hourly
329,1,ROOM_6BDAFD1B..FACE5_GLZ1,Surface Window Heat Gain Energy [J] !Hourly
330,1,ROOM_6BDAFD1B..FACE5_GLZ1,Surface Window Heat Loss Energy [J] !Hourly
331,1,ROOM_BC2FAB81..FACE3_GLZ1,Surface Window Heat Gain Energy [J] !Hourly
332,1,ROOM_BC2FAB81..FACE3_GLZ1,Surface Window Heat Loss Energy [J] !Hourly
333,1,ROOM_BC2FAB81..FACE4_GLZ1,Surface Window Heat Gain Energy [J] !Hourly
334,1,ROOM_BC2FAB81..FACE4_GLZ1,Surface Window Heat Loss Energy [J] !Hourly
335,1,ROOM_BC2FAB81..FACE5_GLZ1,Surface Window Heat Gain Energy [J] !Hourly
336,1,ROOM_BC2FAB81..FACE5_GLZ1,Surface Window Heat Loss Energy [J] !Hourly
337,1,ROOM_CF1F3D8B..FACE1_GLZ1,Surface Window Heat Gain Energy [J] !Hourly
338,1,ROOM_CF1F3D8B..FACE1_GLZ1,Surface Window Heat Loss Energy [J] !Hourly
339,1,ROOM_CF1F3D8B..FACE6_GLZ1,Surface Window Heat Gain Energy [J] !Hourly
340,1,ROOM_CF1F3D8B..FACE6_GLZ1,Surface Window Heat Loss Energy [J] !Hourly
341,1,ROOM_F2BB9F6E..FACE1_GLZ1,Surface Window Heat Gain Energy [J] !Hourly
342,1,ROOM_F2BB9F6E..FACE1_GLZ1,Surface Window Heat Loss Energy [J] !Hourly
343,1,ROOM_4551A1BE..FACE1,Surface Average Face Conduction Heat Transfer Energy [J] !Hourly
344,1,ROOM_4551A1BE..FACE2,Surface Average Face Conduction Heat Transfer Energy [J] !Hourly
345,1,ROOM_4551A1BE..FACE3,Surface Outside Face Solar Radiation Heat Gain Energy [J] !Hourly
346,1,ROOM_4551A1BE..FACE3,Surface Average Face Conduction Heat Transfer Energy [J] !Hourly
347,1,ROOM_4551A1BE..FACE4,Surface Average Face Conduction Heat Transfer Energy [J] !Hourly
348,1,ROOM_4551A1BE..FACE0,Surface Average Face Conduction Heat Transfer Energy [J] !Hourly
349,1,ROOM_4551A1BE..FACE5,Surface Average Face Conduction Heat Transfer Energy [J] !Hourly
350,1,ROOM_5245B8FB..FACE1,Surface Average Face Conduction Heat Transfer Energy [J] !Hourly
351,1,ROOM_5245B8FB..FACE2,Surface Average Face Conduction Heat Transfer Energy [J] !Hourly
352,1,ROOM_5245B8FB..FACE3,Surface Average Face Conduction Heat Transfer Energy [J] !Hourly
353,1,ROOM_5245B8FB..FACE4,Surface Outside Face Solar Radiation Heat Gain Energy [J] !Hourly
354,1,ROOM_5245B8FB..FACE4,Surface Average Face Conduction Heat Transfer Energy [J] !Hourly
355,1,ROOM_5245B8FB..FACE5,Surface Outside Face Solar Radiation Heat Gain Energy [J] !Hourly
356,1,ROOM_5245B8FB..FACE5,Surface Average Face Conduction Heat Transfer Energy [J] !Hourly
357,1,ROOM_5245B8FB..FACE0,Surface Average Face Conduction Heat Transfer Energy [J] !Hourly
358,1,ROOM_5245B8FB..FACE6,Surface Average Face Conduction Heat Transfer Energy [J] !Hourly
359,1,ROOM_6BDAFD1B..FACE1,Surface Average Face Conduction Heat Transfer Energy [J] !Hourly
360,1,ROOM_6BDAFD1B..FACE2,Surface Average Face Conduction Heat Transfer Energy [J] !Hourly
361,1,ROOM_6BDAFD1B..FACE3,Surface Outside Face Solar Radiation Heat Gain Energy [J] !Hourly
362,1,ROOM_6BDAFD1B..FACE3,Surface Average Face Conduction Heat Transfer Energy [J] !Hourly
363,1,ROOM_6BDAFD1B..FACE4,Surface Outside Face Solar Radiation Heat Gain Energy [J] !Hourly
364,1,ROOM_6BDAFD1B..FACE4,Surface Average Face Conduction Heat Transfer Energy [J] !Hourly
365,1,ROOM_6BDAFD1B..FACE5,Surface Outside Face Solar Radiation Heat Gain Energy [J] !Hourly
366,1,ROOM_6BDAFD1B..FACE5,Surface Average Face Conduction Heat Transfer Energy [J] !Hourly
367,1,ROOM_6BDAFD1B..FACE0,Surface Average Face Conduction Heat Transfer Energy [J] !Hourly
368,1,ROOM_6BDAFD1B..FACE6,Surface Average Face Conduction Heat Transfer Energy [J] !Hourly
369,1,ROOM_BC2FAB81..FACE1,Surface Average Face Conduction Heat Transfer Energy [J] !Hourly
370,1,ROOM_BC2FAB81..FACE2,Surface Outside Face Solar Radiation Heat Gain Energy [J] !Hourly
371,1,ROOM_BC2FAB81..FACE2,Surface Average Face Conduction Heat Transfer Energy [J] !Hourly
372,1,ROOM_BC2FAB81..FACE3,Surface Outside Face Solar Radiation Heat Gain Energy [J] !Hourly
373,1,ROOM_BC2FAB81..FACE3,Surface Average Face Conduction Heat Transfer Energy [J] !Hourly
374,1,ROOM_BC2FAB81..FACE4,Surface Outside Face Solar Radiation Heat Gain Energy [J] !Hourly
375,1,ROOM_BC2FAB81..FACE4,Surface Average Face Conduction Heat Transfer Energy [J] !Hourly
376,1,ROOM_BC2FAB81..FACE5,Surface Outside Face Solar Radiation Heat Gain Energy [J] !Hourly
377,1,ROOM_BC2FAB81..FACE5,Surface Average Face Conduction Heat Transfer Energy [J] !Hourly
378,1,ROOM_BC2FAB81..FACE0,Surface Average Face Conduction Heat Transfer Energy [J] !Hourly
379,1,ROOM_BC2FAB81..FACE6,Surface Average Face Conduction Heat Transfer Energy [J] !Hourly
380,1,ROOM_CF1F3D8B..FACE1,Surface Outside Face Solar Radiation Heat Gain Energy [J] !Hourly
381,1,ROOM_CF1F3D8B..FACE1,Surface Average Face Conduction Heat Transfer Energy [J] !Hourly
382,1,ROOM_CF1F3D8B..FACE2,Surface Average Face Conduction Heat Transfer Energy [J] !Hourly
383,1,ROOM_CF1F3D8B..FACE3,Surface Average Face Conduction Heat Transfer Energy [J] !Hourly
384,1,ROOM_CF1F3D8B..FACE4,Surface Average Face Conduction Heat Transfer Energy [J] !Hourly
385,1,ROOM_CF1F3D8B..FACE5,Surface Average Face Conduction Heat Transfer Energy [J] !Hourly
386,1,ROOM_CF1F3D8B..FACE6,Surface Outside Face Solar Radiation Heat Gain Energy [J] !Hourly
387,1,ROOM_CF1F3D8B..FACE6,Surface Average Face Conduction Heat Transfer Energy [J] !Hourly
388,1,ROOM_CF1F3D8B..FACE0,Surface Average Face Conduction Heat Transfer Energy [J] !Hourly
389,1,ROOM_CF1F3D8B..FACE7,Surface Average Face Conduction Heat Transfer Energy [J] !Hourly
390,1,ROOM_F2BB9F6E..FACE1,Surface Outside Face Solar Radiation Heat Gain Energy [J] !Hourly
391,1,ROOM_F2BB9F6E..FACE1,Surface Average Face Conduction Heat Transfer Energy [J] !Hourly
392,1,ROOM_F2BB9F6E..FACE2,Surface Average Face Conduction Heat Transfer Energy [J] !Hourly
393,1,ROOM_F2BB9F6E..FACE3,Surface Average Face Conduction Heat Transfer Energy [J] !Hourly
394,1,ROOM_F2BB9F6E..FACE4,Surface Average Face Conduction Heat Transfer Energy [J] !Hourly
395,1,ROOM_F2BB9F6E..FACE0,Surface Average Face Conduction Heat Transfer Energy [J] !Hourly
396,1,ROOM_F2BB9F6E..FACE5,Surface Average Face Conduction Heat Transfer Energy [J] !Hourly
397,1,ROOM_4551A1BE,Zone Infiltration Total Heat Loss Energy [J] !Hourly
398,1,ROOM_4551A1BE,Zone Infiltration Total Heat Gain Energy [J] !Hourly
399,1,ROOM_5245B8FB,Zone Infiltration Total Heat Loss Energy [J] !Hourly
400,1,ROOM_5245B8FB,Zone Infiltration Total Heat Gain Energy [J] !Hourly
401,1,ROOM_6BDAFD1B,Zone Infiltration Total Heat Loss Energy [J] !Hourly
402,1,ROOM_6BDAFD1B,Zone Infiltration Total Heat Gain Energy [J] !Hourly
403,1,ROOM_BC2FAB81,Zone Infiltration Total Heat Loss Energy [J] !Hourly
404,1,ROOM_BC2FAB81,Zone Infiltration Total Heat Gain Energy [J] !Hourly
405,1,ROOM_CF1F3D8B,Zone Infiltration Total Heat Loss Energy [J] !Hourly
406,1,ROOM_CF1F3D8B,Zone Infiltration Total Heat Gain Energy [J] !Hourly
407,1,ROOM_F2BB9F6E,Zone Infiltration Total Heat Loss Energy [J] !Hourly
408,1,ROOM_F2BB9F6E,Zone Infiltration Total Heat Gain Energy [J] !Hourly
856,1,ROOM_4551A1BE IDEAL LOADS AIR SYSTEM,Zone Ideal Loads Supply Air Total Heating Energy [J] !Hourly
905,1,ROOM_4551A1BE IDEAL LOADS AIR SYSTEM,Zone Ideal Loads Supply Air Total Cooling Energy [J] !Hourly
954,1,ROOM_4551A1BE IDEAL LOADS AIR SYSTEM,Zone Ideal Loads Zone Total Heating Energy [J] !Hourly
955,1,ROOM_4551A1BE IDEAL LOADS AIR SYSTEM,Zone Ideal Loads Zone Total Cooling Energy [J] !Hourly
956,1,ROOM_5245B8FB IDEAL LOADS AIR SYSTEM,Zone Ideal Loads Supply Air Total Heating Energy [J] !Hourly
957,1,ROOM_5245B8FB IDEAL LOADS AIR SYSTEM,Zone Ideal Loads Supply Air Total Cooling Energy [J] !Hourly
958,1,ROOM_5245B8FB IDEAL LOADS AIR SYSTEM,Zone Ideal Loads Zone Total Heating Energy [J] !Hourly
959,1,ROOM_5245B8FB IDEAL LOADS AIR SYSTEM,Zone Ideal Loads Zone Total Cooling Energy [J] !Hourly
960,1,ROOM_6BDAFD1B IDEAL LOADS AIR SYSTEM,Zone Ideal Loads Supply Air Total Heating Energy [J] !Hourly
961,1,ROOM_6BDAFD1B IDEAL LOADS AIR SYSTEM,Zone Ideal Loads Supply Air Total Cooling Energy [J] !Hourly
962,1,ROOM_6BDAFD1B IDEAL LOADS AIR SYSTEM,Zone Ideal Loads Zone Total Heating Energy [J] !Hourly
963,1,ROOM_6BDAFD1B IDEAL LOADS AIR SYSTEM,Zone Ideal Loads Zone Total Cooling Energy [J] !Hourly
964,1,ROOM_BC2FAB81 IDEAL LOADS AIR SYSTEM,Zone Ideal Loads Supply Air Total Heating Energy [J] !Hourly
965,1,ROOM_BC2FAB81 IDEAL LOADS AIR SYSTEM,Zone Ideal Loads Supply Air Total Cooling Energy [J] !Hourly
966,1,ROOM_BC2FAB81 IDEAL LOADS AIR SYSTEM,Zone Ideal Loads Zone Total Heating Energy [J] !Hourly
967,1,ROOM_BC2FAB81 IDEAL LOADS AIR SYSTEM,Zone Ideal Loads Zone Total Cooling Energy [J] !Hourly
968,1,ROOM_CF1F3D8B IDEAL LOADS AIR SYSTEM,Zone Ideal Loads Supply Air Total Heating Energy [J] !Hourly
969,1,ROOM_CF1F3D8B IDEAL LOADS AIR SYSTEM,Zone Ideal Loads Supply Air Total Cooling Energy [J] !Hourly
970,1,ROOM_CF1F3D8B IDEAL LOADS AIR SYSTEM,Zone Ideal Loads Zone Total Heating Energy [J] !Hourly
971,1,ROOM_CF1F3D8B IDEAL LOADS AIR SYSTEM,Zone Ideal Loads Zone Total Cooling Energy [J] !Hourly
972,1,ROOM_F2BB9F6E IDEAL LOADS AIR SYSTEM,Zone Ideal Loads Supply Air Total Heating Energy [J] !Hourly
973,1,ROOM_F2BB9F6E IDEAL LOADS AIR SYSTEM,Zone Ideal Loads Supply Air Total Cooling Energy [J] !Hourly
974,1,ROOM_F2BB9F6E IDEAL LOADS AIR SYSTEM,Zone Ideal Loads Zone Total Heating Energy [J] !Hourly
975,1,ROOM_F2BB9F6E IDEAL LOADS AIR SYSTEM,Zone Ideal Loads Zone Total Cooling Energy [J] !Hourly
End of Data Dictionary
1,RUN PERIOD 1,  42.37, -71.02,  -5.00,   6.00
2,1, 1, 1, 0, 1, 0.00,60.00,Sunday
7,0.0
8,0.0
9,0.0
10,0.0
11,0.0
12,0.0
313,0.0
314,0.0
315,0.0
316,0.0
317,0.0
318,0.0
319,0.0
320,282222.23496645208
321,0.0
322,173870.0837083783
323,0.0
324,243793.42689131556
325,0.0
326,269685.8553891111
327,0.0
328,485880.7321426281
329,0.0
330,270137.7399330763
331,0.0
332,82054.02311520968
333,0.0
334,123445.6379852936
335,0.0
336,50860.334680805536
337,0.0
338,322217.3634720676
339,0.0
340,240303.82731717768
341,0.0
342,294337.86714179
343,32484.300111026987
344,-6188.626551410472
345,0.0
346,-124143.73274071719
347,-19895.141418082585
348,44495.99645282122
349,8119.969371253226
350,8650.070948557686
351,14758.104407884075
352,17194.94989325463
353,0.0
354,-77778.62785865215
355,0.0
356,-190036.51141732237
357,33238.21487713084
358,3699.816927103099
359,6336.588464472635
360,32100.673607266297
361,0.0
362,-514413.5986479442
363,0.0
364,-337741.1579612214
365,0.0
366,-123395.02486349398
367,258435.76684167694
368,33464.631674539814
369,28099.7880095707
370,0.0
371,-171890.37036548809
372,0.0
373,-36036.49315499462
374,0.0
375,-54151.885676546866
376,0.0
377,-49455.29972806884
378,15504.815099481822
379,1406.1831943040955
380,0.0
381,-598624.0950528211
382,16023.048615915173
383,-13380.379954638416
384,-7842.554350303286
385,-28230.09087935681
386,0.0
387,-229975.6986402038
388,271388.86894504868
389,42132.17979070222
390,0.0
391,-538773.9564446549
392,-26190.03348312854
393,-25550.504391223993
394,-5558.450429667415
395,209159.6578243379
396,33335.15732806398
397,174820.3248836921
398,0.0
399,272973.2153743127
400,0.0
401,649549.3102762093
402,0.0
403,218436.37380545849
404,0.0
405,343184.50949933487
406,0.0
407,174919.6382106208
408,0.0
856,889024.3485878096
905,0.0
954,421748.50010071977
955,0.0
956,1032210.5620953722
957,0.0
958,733005.0340719207
959,0.0
960,2248783.501437559
961,0.0
962,1373793.523739731
963,0.0
964,615430.551443991
965,0.0
966,555453.60579702
967,0.0
968,924383.8077170394
969,0.0
970,444488.8717779242
971,0.0
972,512130.6065715774
973,0.0
974,86393.07617702006
975,2199.891004162143
2,1, 1, 1, 0, 2, 0.00,60.00,Sunday
7,0.0
8,0.0
9,0.0
10,0.0
11,0.0
12,0.0
313,0.0
314,0.0
315,0.0
316,0.0
317,0.0
318,0.0
319,0.0
320,219673.14778122115
321,0.0
322,134666.90508925607
323,0.0
324,189538.75644432178
325,0.0
326,209432.17117279306
327,0.0
328,377480.19681101499
329,0.0
330,209636.41942077754
331,0.0
332,63244.330724635955
333,0.0
334,95595.59383822268
335,0.0
336,39193.77992264596
337,0.0
338,251559.70694872368
339,0.0
340,187443.29061111655
341,0.0
342,230700.96378278984
343,28341.019088546524
344,-6675.898384115708
345,0.0
346,146915.61731825039
347,-18882.724634614722
348,34196.25649064269
349,4859.89605105993
350,7531.99105024262
351,12850.520068539263
352,15707.949745764616
353,0.0
354,95128.07374340072
355,0.0
356,62661.30415241152
357,21654.100265522866
358,936.042344678118
359,6049.291343578857
360,28974.764897919453
361,0.0
362,-210028.8605759404
363,0.0
364,151436.6408072865
365,0.0
366,141330.97733253585
367,208694.03355686167
368,22136.36477246946
369,25342.397309191583
370,0.0
371,-66881.77592382128
372,0.0
373,47310.536244555085
374,0.0
375,70784.97000761038
376,0.0
377,5305.584808973184
378,11405.26204486005
379,504.5011454286262
380,0.0
381,-249976.14496565425
382,14454.507541260868
383,-12221.164470514492
384,-7163.1109810734419
385,-25918.038529834233
386,0.0
387,8720.10724025127
388,227607.432086465
389,32506.98442764129
390,0.0
391,-225807.6117066206
392,-24578.30347672906
393,-23655.418329392924
394,-6404.642852642794
395,178216.1073468861
396,26519.35882619691
397,132207.28996473374
398,0.0
399,212038.0483416648
400,0.0
401,500946.29873228396
402,0.0
403,175478.1426678363
404,0.0
405,264343.37631674457
406,0.0
407,132564.73546768764
408,0.0
856,720374.769548073
905,0.0
954,362728.0950441609
955,0.0
956,854729.5215018842
957,0.0
958,618811.9318991184
959,0.0
960,1825783.1595815335
961,0.0
962,1141459.4572046616
963,0.0
964,520018.36621677307
965,0.0
966,470580.56000077226
967,0.0
968,738597.4639821191
969,0.0
970,363799.79909040036
971,0.0
972,394437.4744058914
973,0.0
974,67252.15497361233
975,1105.6702298983492
2,1, 1, 1, 0, 3, 0.00,60.00,Sunday
7,0.0
8,0.0
9,0.0
10,0.0
11,0.0
12,0.0
313,0.0
314,0.0
315,0.0
316,0.0
317,0.0
318,0.0
319,0.0
320,225141.91410523529
321,0.0
322,138156.38305200509
323,0.0
324,194551.64897138946
325,0.0
326,214113.1142546701
327,0.0
328,385864.0659106508
329,0.0
330,214338.1178997483
331,0.0
332,64900.72377361625
333,0.0
334,98145.1171179915
335,0.0
336,40223.866690810806
337,0.0
338,256105.0414273394
339,0.0
340,190843.00434618406
341,0.0
342,234981.16989407846
343,26982.37249313007
344,-5674.922982287329
345,0.0
346,32912.09389986175
347,-16507.216680063928
348,31983.561999185164
349,4454.1879294130089
350,7469.369597211243
351,12743.680026705322
352,18264.159571563556
353,0.0
354,23465.353377472587
355,0.0
356,-33968.812570532566
357,20219.101577667432
358,1303.1378917168179
359,9873.191231233866
360,29990.124550887547
361,0.0
362,-293202.652411936
363,0.0
364,-37562.187506379814
365,0.0
366,32173.46560478507
367,193134.38635338885
368,21283.138997237904
369,26212.786112489062
370,0.0
371,-95111.75785332635
372,0.0
373,13015.433115070202
374,0.0
375,18821.103262271343
376,0.0
377,-14240.892291779384
378,10192.023102324587
379,530.4462723801855
380,0.0
381,-345956.05938569779
382,17131.78038554467
383,-9540.137546562604
384,-5591.698253108999
385,-22319.141657296284
386,0.0
387,-77188.81608375287
388,203249.89631275429
389,29406.222420243088
390,0.0
391,-312455.52612943897
392,-21177.985435421477
393,-19017.668952871758
394,-5165.2952493858069
395,158468.40691262828
396,23530.781917708675
397,147183.4117862365
398,0.0
399,233621.21628929754
400,0.0
401,553900.8187089233
402,0.0
403,187207.318182327
404,0.0
405,292452.9398681086
406,0.0
407,147502.90820857656
408,0.0
856,744752.532091872
905,0.0
954,340868.8878759541
955,0.0
956,876164.4310250294
957,0.0
958,611765.1366377999
959,0.0
960,1912548.853323146
961,0.0
962,1143410.5896226769
963,0.0
964,532367.3827461822
965,0.0
966,478698.61052559516
967,0.0
968,813434.3786381905
969,0.0
970,391996.4790806049
971,0.0
972,450884.4400526377
973,0.0
974,80260.2229813822
975,0.0
2,1, 1, 1, 0, 4, 0.00,60.00,Sunday
7,0.0
8,0.0
9,0.0
10,0.0
11,0.0
12,0.0
313,0.0
314,0.0
315,0.0
316,0.0
317,0.0
318,0.0
319,0.0
320,228219.3714389087
321,0.0
322,140110.43674809763
323,0.0
324,197397.68305029008
325,0.0
326,216559.58367370419
327,0.0
328,390075.11177703519
329,0.0
330,216713.58538339879
331,0.0
332,65752.76541487486
333,0.0
334,99432.36418896288
335,0.0
336,40766.164189507894
337,0.0
338,258056.48542179657
339,0.0
340,192284.7352356642
341,0.0
342,236923.85244103708
343,24454.147703849245
344,-6419.020434040239
345,0.0
346,-27105.238451886762
347,-15990.857860328655
348,30765.361132914928
349,4395.808379679631
350,6825.729326333349
351,11645.549112493734
352,18740.890661018508
353,0.0
354,-14544.367606437258
355,0.0
356,-81518.8000169252
357,19373.976348748653
358,1686.5493193188123
359,11295.325275542256
360,28819.190722611173
361,0.0
362,-321815.70265134776
363,0.0
364,-133120.53402852547
365,0.0
366,-25771.77829959176
367,178824.57806492345
368,20410.161688784483
369,25286.54976579988
370,0.0
371,-105068.47408620238
372,0.0
373,-5212.4867019839689
374,0.0
375,-8602.689730368984
376,0.0
377,-23522.3959434028
378,9373.963753872162
379,614.80769124188
380,0.0
381,-378595.3234172722
382,17476.267371637954
383,-8242.487402663788
384,-4831.115084640942
385,-20910.04642748308
386,0.0
387,-117576.33368047085
388,182681.63337220194
389,26210.57547831446
390,0.0
391,-341867.59562610197
392,-19601.43126412421
393,-15753.320761684856
394,-5429.553970456011
395,142323.17528479859
396,21420.29859927442
397,154659.4139333362
398,0.0
399,242685.8874346015
400,0.0
401,577248.722531165
402,0.0
403,191416.6475506155
404,0.0
405,304949.758021638
406,0.0
407,154865.64963586723
408,0.0
856,768294.94641063
905,0.0
954,341700.22339875888
955,0.0
956,898102.344351061
957,0.0
958,622220.2165989607
959,0.0
960,1992939.638852392
961,0.0
962,1187579.24165176
963,0.0
964,547225.5544884618
965,0.0
966,492259.99813102287
967,0.0
968,884915.6157490839
969,0.0
970,443366.1251853266
971,0.0
972,499516.7480539036
973,0.0
974,108387.74945760759
975,0.0
2,1, 1, 1, 0, 5, 0.00,60.00,Sunday
7,0.0
8,0.0
9,0.0
10,0.0
11,0.0
12,0.0
313,0.0
314,0.0
315,0.0
316,0.0
317,0.0
318,0.0
319,0.0
320,227582.3391840428
321,0.0
322,139754.83057673434
323,0.0
324,196937.04259007358
325,0.0
326,215617.6843519174
327,0.0
328,388199.17910030428
329,0.0
330,215679.55883736234
331,0.0
332,65513.66972073487
333,0.0
334,99034.98320080915
335,0.0
336,40633.787800832644
337,0.0
338,256243.37857039547
339,0.0
340,190919.43184135663
341,0.0
342,235342.77596673562
343,21517.832286704288
344,-7510.71678581757
345,0.0
346,-49811.971300379555
347,-15979.499512223403
348,29244.91721450834
349,4224.805873604557
350,6082.337362433408
351,10377.229316683697
352,18473.020643464642
353,0.0
354,-28965.448940241557
355,0.0
356,-95849.63107078368
357,17987.53747767289
358,1772.32154826782
359,11868.083008603988
360,27019.138293014388
361,0.0
362,-315958.2374390716
363,0.0
364,-164003.06854194773
365,0.0
366,-47632.010231212094
367,163305.89560838126
368,18827.560154847808
369,23904.891085447936
370,0.0
371,-103280.71525345172
372,0.0
373,-12156.305891902832
374,0.0
375,-18852.021568675533
376,0.0
377,-25902.254540270267
378,8480.263161411109
379,617.2932420334779
380,0.0
381,-371556.93653233037
382,16706.644041185307
383,-7436.96203936581
384,-4358.977786325864
385,-20147.25818240562
386,0.0
387,-127511.3000237218
388,163967.7083032411
389,22932.723471073645
390,0.0
391,-335553.10502299907
392,-18883.55334807699
393,-13523.180947825282
394,-5830.910941760255
395,128172.12604447692
396,19568.06199611299
397,158086.03774717629
398,0.0
399,246149.44419737976
400,0.0
401,586625.6764844777
402,0.0
403,192680.4280926618
404,0.0
405,310012.22591218436
406,0.0
407,158194.1375529978
408,0.0
856,779631.257455647
905,0.0
954,343149.4162919036
955,1205.77547328582
956,907055.7494613206
957,0.0
958,628257.5686023352
959,1937.0877756065625
960,2037679.686491354
961,0.0
962,1221227.4762044219
963,4790.4731132174679
964,554956.8469382884
965,0.0
966,499947.0876901543
967,470.7275699315119
968,935234.1069064166
969,0.0
970,487330.2567018908
971,2522.6997220275109
972,532643.2781780779
973,0.0
974,132843.507871587
975,1227.3226414643817
2,1, 1, 1, 0, 6, 0.00,60.00,Sunday
7,0.0
8,0.0
9,0.0
10,0.0
11,0.0
12,0.0
313,0.0
314,0.0
315,0.0
316,0.0
317,0.0
318,0.0
319,0.0
320,228082.01524538594
321,0.0
322,140081.73010233048
323,0.0
324,197324.46995071643
325,0.0
326,215479.61212636383
327,0.0
328,388341.2446137968
329,0.0
330,215763.40588352574
331,0.0
332,65597.85901558612
333,0.0
334,99232.56801896775
335,0.0
336,40653.678496435336
337,0.0
338,255500.89215459408
339,0.0
340,190392.7946958547
341,0.0
342,234717.11661330009
343,18854.654435081735
344,-8463.079401578487
345,0.0
346,-57904.51514953852
347,-15957.441979972447
348,27664.104954158858
349,4000.6171103677377
350,5443.707474320833
351,9287.646742990146
352,18208.68680178798
353,0.0
354,-34016.02319046014
355,0.0
356,-101975.13897193586
357,16611.660488029676
358,1752.9930911597454
359,12370.226313606985
360,25443.854737064303
361,0.0
362,-310649.0877817911
363,0.0
364,-174328.17794754276
365,0.0
366,-55312.1527792773
367,148666.26621265897
368,17175.404303417494
369,22707.954840404404
370,0.0
371,-101525.21913817233
372,0.0
373,-14605.899763069121
374,0.0
375,-22988.38667694288
376,0.0
377,-26759.16928797189
378,7628.071079096613
379,585.725816771202
380,0.0
381,-365418.1088260001
382,15836.032988914947
383,-6728.203211880986
384,-3943.5576230232475
385,-19458.723793308734
386,0.0
387,-131195.279620417
388,147674.79471231439
389,19962.71487432254
390,0.0
391,-330142.95976496775
392,-18305.406360587593
393,-11802.91828535652
394,-6446.016001166685
395,115678.19623585939
396,17901.26654322503
397,158898.74822265405
398,0.0
399,246176.19941411034
400,0.0
401,587366.2879896775
402,0.0
403,192049.20659651274
404,0.0
405,310470.58719956388
406,0.0
407,158933.57784600426
408,0.0
856,790416.956432512
905,0.0
954,352471.4552382196
955,2455.1866986554616
956,915188.8857168431
957,0.0
958,636331.383486724
959,2005.2939491235009
960,2078956.1233990554
961,0.0
962,1262055.3570754808
963,5828.052384258377
964,561550.1440176371
965,0.0
966,506539.8693413256
967,238.05039022927873
968,979239.192403898
969,0.0
970,531058.1038009285
971,3173.371965437741
972,563035.5228403315
973,0.0
974,162080.28294851676
975,2349.813344994085
2,1, 1, 1, 0, 7, 0.00,60.00,Sunday
7,19219.006001915997
8,12239.017291116008
9,35851.68139071601
10,2414.2394484117014
11,19668.978465516004
12,17595.307736315997
313,0.0
314,0.0
315,0.0
316,0.0
317,0.0
318,0.0
319,0.0
320,232968.92047078338
321,0.0
322,143204.16178148159
323,0.0
324,202056.78587322794
325,0.0
326,219413.16841801629
327,0.0
328,396022.3042373811
329,0.0
330,220043.2057851459
331,0.0
332,67113.46975233463
333,0.0
334,101678.01190220873
335,0.0
336,41606.12741713433
337,0.0
338,259659.93137505308
339,0.0
340,193855.80843136105
341,0.0
342,238534.98370395453
343,15770.586971011911
344,-9998.57616145192
345,0.0
346,-91967.11178192293
347,-16673.961887439422
348,23943.34516791625
349,2969.922932629725
350,4795.810762848593
351,8182.253808030916
352,17629.741249069528
353,0.0
354,-55430.78074204401
355,0.0
356,-131167.8574828153
357,14497.011755165275
358,1394.6214825312866
359,12195.449863318845
360,23526.85083456419
361,0.0
362,-332534.69253652277
363,0.0
364,-230835.62332823516
365,0.0
366,-88188.33234207938
367,131466.03419717236
368,14321.301390101557
369,21840.97202308371
370,0.0
371,-108900.57075372334
372,0.0
373,-24884.6802297576
374,0.0
375,-39442.69906136222
376,0.0
377,-32483.777488731066
378,6845.6685957368849
379,544.3004329982875
380,0.0
381,-390445.2430995548
382,14640.240886610356
383,-6339.928735413211
384,-3715.980850550618
385,-19170.869699749444
386,0.0
387,-156726.17373438134
388,132365.9515463704
389,16763.3546532904
390,0.0
391,-352839.36940786449
392,-18516.995542686796
393,-11185.125533518352
394,-7729.6145878064949
395,102605.72767527303
396,15228.798250878994
397,161939.19644394646
398,0.0
399,250586.61741069583
400,0.0
401,597960.80015936
402,0.0
403,195715.72083536609
404,0.0
405,316081.8803698073
406,0.0
407,161947.0763417152
408,0.0
856,783130.2826353209
905,0.0
954,336351.61196206658
955,827.9354845927941
956,916317.7024827786
957,0.0
958,631807.7820957778
959,478.1863914413748
960,2093888.0564423493
961,0.0
962,1260467.3705108627
963,1581.546164042686
964,570519.4664830258
965,0.0
966,514406.0232880567
967,4.278331215675735
968,1003330.0974169512
969,0.0
970,546095.3734511247
971,878.4266384718649
972,576978.4844975437
973,0.0
974,167942.75600427629
975,782.0675082331803
2,1, 1, 1, 0, 8, 0.00,60.00,Sunday
7,19219.006001915997
8,12239.017291116008
9,35851.68139071601
10,2414.2394484117014
11,19668.978465516004
12,17595.307736315997
313,32276.67878734661
314,44864.75175250455
315,245195.2243166463
316,28573.743503274913
317,105340.34833617782
318,69831.18767162824
319,0.0
320,197716.1915910793
321,0.0
322,120537.98634984243
323,0.0
324,176191.26049159299
325,0.0
326,136995.3009895533
327,9510.278891869588
328,228321.55274173514
329,0.0
330,185173.6420577482
331,0.0
332,55586.41066800887
333,0.0
334,88921.54265087848
335,0.0
336,34685.18696076073
337,0.0
338,164733.4106450909
339,0.0
340,163476.57614500659
341,0.0
342,153930.2856797722
343,12162.621090503268
344,-12005.905373758611
345,150213.68372975928
346,-74972.0675801336
347,-18246.869010785686
348,15413.705914034306
349,1406.1240423461346
350,3498.5706009416064
351,5968.999620246945
352,13975.331011175862
353,96208.88452811112
354,-45207.45876786923
355,128910.85266993434
356,-115317.04855366842
357,5657.528549972896
358,-133.3768875283749
359,4498.115987568905
360,15078.411462572709
361,315359.416806326
362,-241107.8747985146
363,667012.2530070308
364,-59724.49835921695
365,147272.62160048233
366,-75677.32066652917
367,53636.14813520979
368,2439.662956755949
369,17749.221180825058
370,108989.99536482424
371,-77281.7628802057
372,48678.54872224518
373,-19543.9782355363
374,57118.80951034505
375,-36167.14924948971
376,29192.81958803945
377,-28543.93716950838
378,4101.154157156877
379,90.95828200417846
380,361969.8809378142
381,-282787.1645836643
382,9045.295467357397
383,-8298.476936991083
384,-4863.9318632001909
385,-21615.78636670542
386,126737.48090688235
387,-139602.20772487499
388,96172.70778091403
389,10520.153295672253
390,323080.62241531399
391,-255821.74324916103
392,-21669.079226164074
393,-14659.707480208332
394,-11956.393210514416
395,75521.23911204549
396,10393.686552041892
397,166094.83875108316
398,0.0
399,256740.28954655969
400,0.0
401,612779.6650875455
402,0.0
403,200172.07832471963
404,0.0
405,323928.6643728188
406,0.0
407,166083.3261121139
408,0.0
856,792320.5358705926
905,0.0
954,339343.1843268463
955,5835.845277256229
956,920320.9952205299
957,0.0
958,631907.7942353028
959,3468.6819401634754