Program Version,EnergyPlus, Version 9.3.0-baff08990c, YMD=2021.04.24 19:36
1,5,Environment Title[],Latitude[deg],Longitude[deg],Time Zone[],Elevation[m]
2,8,Day of Simulation[],Month[],Day of Month[],DST Indicator[1=yes 0=no],Hour[],StartMinute[],EndMinute[],DayType
3,5,Cumulative Day of Simulation[],Month[],Day of Month[],DST Indicator[1=yes 0=no],DayType  ! When Daily Report Variables Requested
4,2,Cumulative Days of Simulation[],Month[]  ! When Monthly Report Variables Requested
5,1,Cumulative Days of Simulation[] ! When Run Period Report Variables Requested
6,1,Calendar Year of Simulation[] ! When Annual Report Variables Requested
7,1,ROOM_0FDDBA2B,Zone People Total Heating Energy [J] !Hourly
8,1,ROOM_531E8078,Zone People Total Heating Energy [J] !Hourly
9,1,ROOM_56521574,Zone People Total Heating Energy [J] !Hourly
10,1,ROOM_59A68702,Zone People Total Heating Energy [J] !Hourly
11,1,ROOM_69C57780,Zone People Total Heating Energy [J] !Hourly
12,1,ROOM_6B25590F,Zone People Total Heating Energy [J] !Hourly
13,1,ROOM_87F75E74,Zone People Total Heating Energy [J] !Hourly
14,1,ROOM_9A62749C,Zone People Total Heating Energy [J] !Hourly
15,1,ROOM_9B30FE72,Zone People Total Heating Energy [J] !Hourly
16,1,ROOM_9C2FF06E,Zone People Total Heating Energy [J] !Hourly
17,1,ROOM_A2B21F44,Zone People Total Heating Energy [J] !Hourly
18,1,ROOM_CAA40456,Zone People Total Heating Energy [J] !Hourly
19,1,ROOM_CD8806C1,Zone People Total Heating Energy [J] !Hourly
20,1,ROOM_F5B2DE7D,Zone People Total Heating Energy [J] !Hourly
21,1,ROOM_FE6D4BD5,Zone People Total Heating Energy [J] !Hourly
664,1,ROOM_0FDDBA2B,Zone Windows Total Transmitted Solar Radiation Energy [J] !Hourly
665,1,ROOM_531E8078,Zone Windows Total Transmitted Solar Radiation Energy [J] !Hourly
666,1,ROOM_56521574,Zone Windows Total Transmitted Solar Radiation Energy [J] !Hourly
667,1,ROOM_59A68702,Zone Windows Total Transmitted Solar Radiation Energy [J] !Hourly
668,1,ROOM_69C57780,Zone Windows Total Transmitted Solar Radiation Energy [J] !Hourly
669,1,ROOM_6B25590F,Zone Windows Total Transmitted Solar Radiation Energy [J] !Hourly
670,1,ROOM_87F75E74,Zone Windows Total Transmitted Solar Radiation Energy [J] !Hourly
671,1,ROOM_9A62749C,Zone Windows Total Transmitted Solar Radiation Energy [J] !Hourly
672,1,ROOM_9B30FE72,Zone Windows Total Transmitted Solar Radiation Energy [J] !Hourly
673,1,ROOM_9C2FF06E,Zone Windows Total Transmitted Solar Radiation Energy [J] !Hourly
674,1,ROOM_A2B21F44,Zone Windows Total Transmitted Solar Radiation Energy [J] !Hourly
675,1,ROOM_CAA40456,Zone Windows Total Transmitted Solar Radiation Energy [J] !Hourly
676,1,ROOM_CD8806C1,Zone Windows Total Transmitted Solar Radiation Energy [J] !Hourly
677,1,ROOM_F5B2DE7D,Zone Windows Total Transmitted Solar Radiation Energy [J] !Hourly
678,1,ROOM_FE6D4BD5,Zone Windows Total Transmitted Solar Radiation Energy [J] !Hourly
679,1,ROOM_0FDDBA2B..FACE1_GLZ1,Surface Window Heat Gain Energy [J] !Hourly
680,1,ROOM_0FDDBA2B..FACE1_GLZ1,Surface Window Heat Loss Energy [J] !Hourly
681,1,ROOM_0FDDBA2B..FACE2_GLZ1,Surface Window Heat Gain Energy [J] !Hourly
682,1,ROOM_0FDDBA2B..FACE2_GLZ1,Surface Window Heat Loss Energy [J] !Hourly
683,1,ROOM_531E8078..FACE3_GLZ1,Surface Window Heat Gain Energy [J] !Hourly
684,1,ROOM_531E8078..FACE3_GLZ1,Surface Window Heat Loss Energy [J] !Hourly
685,1,ROOM_531E8078..FACE4_GLZ1,Surface Window Heat Gain Energy [J] !Hourly
686,1,ROOM_531E8078..FACE4_GLZ1,Surface Window Heat Loss Energy [J] !Hourly
687,1,ROOM_56521574..FACE1_GLZ1,Surface Window Heat Gain Energy [J] !Hourly
688,1,ROOM_56521574..FACE1_GLZ1,Surface Window Heat Loss Energy [J] !Hourly
689,1,ROOM_59A68702..FACE1_GLZ1,Surface Window Heat Gain Energy [J] !Hourly
690,1,ROOM_59A68702..FACE1_GLZ1,Surface Window Heat Loss Energy [J] !Hourly
691,1,ROOM_69C57780..FACE2_GLZ1,Surface Window Heat Gain Energy [J] !Hourly
692,1,ROOM_69C57780..FACE2_GLZ1,Surface Window Heat Loss Energy [J] !Hourly
693,1,ROOM_69C57780..FACE3_GLZ1,Surface Window Heat Gain Energy [J] !Hourly
694,1,ROOM_69C57780..FACE3_GLZ1,Surface Window Heat Loss Energy [J] !Hourly
695,1,ROOM_6B25590F..FACE1_GLZ1,Surface Window Heat Gain Energy [J] !Hourly
696,1,ROOM_6B25590F..FACE1_GLZ1,Surface Window Heat Loss Energy [J] !Hourly
697,1,ROOM_87F75E74..FACE3_GLZ1,Surface Window Heat Gain Energy [J] !Hourly
698,1,ROOM_87F75E74..FACE3_GLZ1,Surface Window Heat Loss Energy [J] !Hourly
699,1,ROOM_9A62749C..FACE2_GLZ1,Surface Window Heat Gain Energy [J] !Hourly
700,1,ROOM_9A62749C..FACE2_GLZ1,Surface Window Heat Loss Energy [J] !Hourly
701,1,ROOM_9A62749C..FACE3_GLZ1,Surface Window Heat Gain Energy [J] !Hourly
702,1,ROOM_9A62749C..FACE3_GLZ1,Surface Window Heat Loss Energy [J] !Hourly
703,1,ROOM_9B30FE72..FACE3_GLZ1,Surface Window Heat Gain Energy [J] !Hourly
704,1,ROOM_9B30FE72..FACE3_GLZ1,Surface Window Heat Loss Energy [J] !Hourly
705,1,ROOM_9B30FE72..FACE4_GLZ1,Surface Window Heat Gain Energy [J] !Hourly
706,1,ROOM_9B30FE72..FACE4_GLZ1,Surface Window Heat Loss Energy [J] !Hourly
707,1,ROOM_9C2FF06E..FACE1_GLZ1,Surface Window Heat Gain Energy [J] !Hourly
708,1,ROOM_9C2FF06E..FACE1_GLZ1,Surface Window Heat Loss Energy [J] !Hourly
709,1,ROOM_9C2FF06E..FACE4_GLZ1,Surface Window Heat Gain Energy [J] !Hourly
710,1,ROOM_9C2FF06E..FACE4_GLZ1,Surface Window Heat Loss Energy [J] !Hourly
711,1,ROOM_CD8806C1..FACE4_GLZ1,Surface Window Heat Gain Energy [J] !Hourly
712,1,ROOM_CD8806C1..FACE4_GLZ1,Surface Window Heat Loss Energy [J] !Hourly
713,1,ROOM_CD8806C1..FACE5_GLZ1,Surface Window Heat Gain Energy [J] !Hourly
714,1,ROOM_CD8806C1..FACE5_GLZ1,Surface Window Heat Loss Energy [J] !Hourly
715,1,ROOM_F5B2DE7D..FACE3_GLZ1,Surface Window Heat Gain Energy [J] !Hourly
716,1,ROOM_F5B2DE7D..FACE3_GLZ1,Surface Window Heat Loss Energy [J] !Hourly
717,1,ROOM_FE6D4BD5..FACE4_GLZ1,Surface Window Heat Gain Energy [J] !Hourly
718,1,ROOM_FE6D4BD5..FACE4_GLZ1,Surface Window Heat Loss Energy [J] !Hourly
719,1,ROOM_FE6D4BD5..FACE5_GLZ1,Surface Window Heat Gain Energy [J] !Hourly
720,1,ROOM_FE6D4BD5..FACE5_GLZ1,Surface Window Heat Loss Energy [J] !Hourly
721,1,ROOM_0FDDBA2B..FACE1,Surface Outside Face Solar Radiation Heat Gain Energy [J] !Hourly
722,1,ROOM_0FDDBA2B..FACE1,Surface Average Face Conduction Heat Transfer Energy [J] !Hourly
723,1,ROOM_0FDDBA2B..FACE2,Surface Outside Face Solar Radiation Heat Gain Energy [J] !Hourly
724,1,ROOM_0FDDBA2B..FACE2,Surface Average Face Conduction Heat Transfer Energy [J] !Hourly
725,1,ROOM_0FDDBA2B..FACE3,Surface Average Face Conduction Heat Transfer Energy [J] !Hourly
726,1,ROOM_0FDDBA2B..FACE4,Surface Average Face Conduction Heat Transfer Energy [J] !Hourly
727,1,ROOM_0FDDBA2B..FACE5,Surface Average Face Conduction Heat Transfer Energy [J] !Hourly
728,1,ROOM_0FDDBA2B..FACE6,Surface Average Face Conduction Heat Transfer Energy [J] !Hourly
729,1,ROOM_0FDDBA2B..FACE0,Surface Average Face Conduction Heat Transfer Energy [J] !Hourly
730,1,ROOM_0FDDBA2B..FACE7,Surface Average Face Conduction Heat Transfer Energy [J] !Hourly
731,1,ROOM_531E8078..FACE1,Surface Average Face Conduction Heat Transfer Energy [J] !Hourly
732,1,ROOM_531E8078..FACE2,Surface Average Face Conduction Heat Transfer Energy [J] !Hourly
733,1,ROOM_531E8078..FACE3,Surface Outside Face Solar Radiation Heat Gain Energy [J] !Hourly
734,1,ROOM_531E8078..FACE3,Surface Average Face Conduction Heat Transfer Energy [J] !Hourly
735,1,ROOM_531E8078..FACE4,Surface Outside Face Solar Radiation Heat Gain Energy [J] !Hourly
736,1,ROOM_531E8078..FACE4,Surface Average Face Conduction Heat Transfer Energy [J] !Hourly
737,1,ROOM_531E8078..FACE5,Surface Average Face Conduction Heat Transfer Energy [J] !Hourly
738,1,ROOM_531E8078..FACE6,Surface Average Face Conduction Heat Transfer Energy [J] !Hourly
739,1,ROOM_531E8078..FACE0,Surface Average Face Conduction Heat Transfer Energy [J] !Hourly
740,1,ROOM_531E8078..FACE7,Surface Average Face Conduction Heat Transfer Energy [J] !Hourly
741,1,ROOM_56521574..FACE1,Surface Outside Face Solar Radiation Heat Gain Energy [J] !Hourly
742,1,ROOM_56521574..FACE1,Surface Average Face Conduction Heat Transfer Energy [J] !Hourly
743,1,ROOM_56521574..FACE2,Surface Average Face Conduction Heat Transfer Energy [J] !Hourly
744,1,ROOM_56521574..FACE3,Surface Average Face Conduction Heat Transfer Energy [J] !Hourly
745,1,ROOM_56521574..FACE4,Surface Average Face Conduction Heat Transfer Energy [J] !Hourly
746,1,ROOM_56521574..FACE0,Surface Average Face Conduction Heat Transfer Energy [J] !Hourly
747,1,ROOM_56521574..FACE5,Surface Average Face Conduction Heat Transfer Energy [J] !Hourly
748,1,ROOM_59A68702..FACE1,Surface Outside Face Solar Radiation Heat Gain Energy [J] !Hourly
749,1,ROOM_59A68702..FACE1,Surface Average Face Conduction Heat Transfer Energy [J] !Hourly
750,1,ROOM_59A68702..FACE2,Surface Average Face Conduction Heat Transfer Energy [J] !Hourly
751,1,ROOM_59A68702..FACE3,Surface Average Face Conduction Heat Transfer Energy [J] !Hourly
752,1,ROOM_59A68702..FACE4,Surface Average Face Conduction Heat Transfer Energy [J] !Hourly
753,1,ROOM_59A68702..FACE5,Surface Average Face Conduction Heat Transfer Energy [J] !Hourly
754,1,ROOM_59A68702..FACE0,Surface Average Face Conduction Heat Transfer Energy [J] !Hourly
755,1,ROOM_59A68702..FACE6,Surface Average Face Conduction Heat Transfer Energy [J] !Hourly
756,1,ROOM_69C57780..FACE1,Surface Average Face Conduction Heat Transfer Energy [J] !Hourly
757,1,ROOM_69C57780..FACE2,Surface Outside Face Solar Radiation Heat Gain Energy [J] !Hourly
758,1,ROOM_69C57780..FACE2,Surface Average Face Conduction Heat Transfer Energy [J] !Hourly
759,1,ROOM_69C57780..FACE3,Surface Outside Face Solar Radiation Heat Gain Energy [J] !Hourly
760,1,ROOM_69C57780..FACE3,Surface Average Face Conduction Heat Transfer Energy [J] !Hourly
761,1,ROOM_69C57780..FACE4,Surface Average Face Conduction Heat Transfer Energy [J] !Hourly
762,1,ROOM_69C57780..FACE0,Surface Average Face Conduction Heat Transfer Energy [J] !Hourly
763,1,ROOM_69C57780..FACE5,Surface Average Face Conduction Heat Transfer Energy [J] !Hourly
764,1,ROOM_6B25590F..FACE1,Surface Outside Face Solar Radiation Heat Gain Energy [J] !Hourly
765,1,ROOM_6B25590F..FACE1,Surface Average Face Conduction Heat Transfer Energy [J] !Hourly
766,1,ROOM_6B25590F..FACE2,Surface Average Face Conduction Heat Transfer Energy [J] !Hourly
767,1,ROOM_6B25590F..FACE3,Surface Average Face Conduction Heat Transfer Energy [J] !Hourly
768,1,ROOM_6B25590F..FACE4,Surface Average Face Conduction Heat Transfer Energy [J] !Hourly
769,1,ROOM_6B25590F..FACE5,Surface Average Face Conduction Heat Transfer Energy [J] !Hourly
770,1,ROOM_6B25590F..FACE0,Surface Average Face Conduction Heat Transfer Energy [J] !Hourly
771,1,ROOM_6B25590F..FACE6,Surface Average Face Conduction Heat Transfer Energy [J] !Hourly
772,1,ROOM_87F75E74..FACE1,Surface Average Face Conduction Heat Transfer Energy [J] !Hourly
773,1,ROOM_87F75E74..FACE2,Surface Average Face Conduction Heat Transfer Energy [J] !Hourly
774,1,ROOM_87F75E74..FACE3,Surface Outside Face Solar Radiation Heat Gain Energy [J] !Hourly
775,1,ROOM_87F75E74..FACE3,Surface Average Face Conduction Heat Transfer Energy [J] !Hourly
776,1,ROOM_87F75E74..FACE0,Surface Average Face Conduction Heat Transfer Energy [J] !Hourly
777,1,ROOM_87F75E74..FACE4,Surface Average Face Conduction Heat Transfer Energy [J] !Hourly
778,1,ROOM_9A62749C..FACE1,Surface Average Face Conduction Heat Transfer Energy [J] !Hourly
779,1,ROOM_9A62749C..FACE2,Surface Outside Face Solar Radiation Heat Gain Energy [J] !Hourly
780,1,ROOM_9A62749C..FACE2,Surface Average Face Conduction Heat Transfer Energy [J] !Hourly
781,1,ROOM_9A62749C..FACE3,Surface Outside Face Solar Radiation Heat Gain Energy [J] !Hourly
782,1,ROOM_9A62749C..FACE3,Surface Average Face Conduction Heat Transfer Energy [J] !Hourly
783,1,ROOM_9A62749C..FACE4,Surface Average Face Conduction Heat Transfer Energy [J] !Hourly
784,1,ROOM_9A62749C..FACE0,Surface Average Face Conduction Heat Transfer Energy [J] !Hourly
785,1,ROOM_9A62749C..FACE5,Surface Average Face Conduction Heat Transfer Energy [J] !Hourly
786,1,ROOM_9B30FE72..FACE1,Surface Average Face Conduction Heat Transfer Energy [J] !Hourly
787,1,ROOM_9B30FE72..FACE2,Surface Average Face Conduction Heat Transfer Energy [J] !Hourly
788,1,ROOM_9B30FE72..FACE3,Surface Outside Face Solar Radiation Heat Gain Energy [J] !Hourly
789,1,ROOM_9B30FE72..FACE3,Surface Average Face Conduction Heat Transfer Energy [J] !Hourly
790,1,ROOM_9B30FE72..FACE4,Surface Outside Face Solar Radiation Heat Gain Energy [J] !Hourly
791,1,ROOM_9B30FE72..FACE4,Surface Average Face Conduction Heat Transfer Energy [J] !Hourly
792,1,ROOM_9B30FE72..FACE0,Surface Average Face Conduction Heat Transfer Energy [J] !Hourly
793,1,ROOM_9B30FE72..FACE5,Surface Average Face Conduction Heat Transfer Energy [J] !Hourly
794,1,ROOM_9C2FF06E..FACE1,Surface Outside Face Solar Radiation Heat Gain Energy [J] !Hourly
795,1,ROOM_9C2FF06E..FACE1,Surface Average Face Conduction Heat Transfer Energy [J] !Hourly
796,1,ROOM_9C2FF06E..FACE2,Surface Average Face Conduction Heat Transfer Energy [J] !Hourly
797,1,ROOM_9C2FF06E..FACE3,Surface Average Face Conduction Heat Transfer Energy [J] !Hourly
798,1,ROOM_9C2FF06E..FACE4,Surface Outside Face Solar Radiation Heat Gain Energy [J] !Hourly
799,1,ROOM_9C2FF06E..FACE4,Surface Average Face Conduction Heat Transfer Energy [J] !Hourly
800,1,ROOM_9C2FF06E..FACE0,Surface Average Face Conduction Heat Transfer Energy [J] !Hourly
801,1,ROOM_9C2FF06E..FACE5,Surface Average Face Conduction Heat Transfer Energy [J] !Hourly
802,1,ROOM_A2B21F44..FACE1,Surface Average Face Conduction Heat Transfer Energy [J] !Hourly
803,1,ROOM_A2B21F44..FACE2,Surface Average Face Conduction Heat Transfer Energy [J] !Hourly
804,1,ROOM_A2B21F44..FACE3,Surface Average Face Conduction Heat Transfer Energy [J] !Hourly
805,1,ROOM_A2B21F44..FACE4,Surface Average Face Conduction Heat Transfer Energy [J] !Hourly
806,1,ROOM_A2B21F44..FACE0,Surface Average Face Conduction Heat Transfer Energy [J] !Hourly
807,1,ROOM_A2B21F44..FACE5,Surface Average Face Conduction Heat Transfer Energy [J] !Hourly
808,1,ROOM_CAA40456..FACE1,Surface Average Face Conduction Heat Transfer Energy [J] !Hourly
809,1,ROOM_CAA40456..FACE2,Surface Average Face Conduction Heat Transfer Energy [J] !Hourly
810,1,ROOM_CAA40456..FACE3,Surface Average Face Conduction Heat Transfer Energy [J] !Hourly
811,1,ROOM_CAA40456..FACE4,Surface Average Face Conduction Heat Transfer Energy [J] !Hourly
812,1,ROOM_CAA40456..FACE5,Surface Average Face Conduction Heat Transfer Energy [J] !Hourly
813,1,ROOM_CAA40456..FACE6,Surface Average Face Conduction Heat Transfer Energy [J] !Hourly
814,1,ROOM_CAA40456..FACE0,Surface Average Face Conduction Heat Transfer Energy [J] !Hourly
815,1,ROOM_CAA40456..FACE7,Surface Average Face Conduction Heat Transfer Energy [J] !Hourly
816,1,ROOM_CD8806C1..FACE1,Surface Average Face Conduction Heat Transfer Energy [J] !Hourly
817,1,ROOM_CD8806C1..FACE2,Surface Average Face Conduction Heat Transfer Energy [J] !Hourly
818,1,ROOM_CD8806C1..FACE3,Surface Average Face Conduction Heat Transfer Energy [J] !Hourly
819,1,ROOM_CD8806C1..FACE4,Surface Outside Face Solar Radiation Heat Gain Energy [J] !Hourly
820,1,ROOM_CD8806C1..FACE4,Surface Average Face Conduction Heat Transfer Energy [J] !Hourly
821,1,ROOM_CD8806C1..FACE5,Surface Outside Face Solar Radiation Heat Gain Energy [J] !Hourly
822,1,ROOM_CD8806C1..FACE5,Surface Average Face Conduction Heat Transfer Energy [J] !Hourly
823,1,ROOM_CD8806C1..FACE0,Surface Average Face Conduction Heat Transfer Energy [J] !Hourly
824,1,ROOM_CD8806C1..FACE6,Surface Average Face Conduction Heat Transfer Energy [J] !Hourly
825,1,ROOM_F5B2DE7D..FACE1,Surface Average Face Conduction Heat Transfer Energy [J] !Hourly
826,1,ROOM_F5B2DE7D..FACE2,Surface Average Face Conduction Heat Transfer Energy [J] !Hourly
827,1,ROOM_F5B2DE7D..FACE3,Surface Outside Face Solar Radiation Heat Gain Energy [J] !Hourly
828,1,ROOM_F5B2DE7D..FACE3,Surface Average Face Conduction Heat Transfer Energy [J] !Hourly
829,1,ROOM_F5B2DE7D..FACE4,Surface Average Face Conduction Heat Transfer Energy [J] !Hourly
830,1,ROOM_F5B2DE7D..FACE0,Surface Average Face Conduction Heat Transfer Energy [J] !Hourly
831,1,ROOM_F5B2DE7D..FACE5,Surface Average Face Conduction Heat Transfer Energy [J] !Hourly
832,1,ROOM_FE6D4BD5..FACE1,Surface Average Face Conduction Heat Transfer Energy [J] !Hourly
833,1,ROOM_FE6D4BD5..FACE2,Surface Average Face Conduction Heat Transfer Energy [J] !Hourly
834,1,ROOM_FE6D4BD5..FACE3,Surface Average Face Conduction Heat Transfer Energy [J] !Hourly
835,1,ROOM_FE6D4BD5..FACE4,Surface Outside Face Solar Radiation Heat Gain Energy [J] !Hourly
836,1,ROOM_FE6D4BD5..FACE4,Surface Average Face Conduction Heat Transfer Energy [J] !Hourly
837,1,ROOM_FE6D4BD5..FACE5,Surface Outside Face Solar Radiation Heat Gain Energy [J] !Hourly
838,1,ROOM_FE6D4BD5..FACE5,Surface Average Face Conduction Heat Transfer Energy [J] !Hourly
839,1,ROOM_FE6D4BD5..FACE6,Surface Average Face Conduction Heat Transfer Energy [J] !Hourly
840,1,ROOM_FE6D4BD5..FACE7,Surface Average Face Conduction Heat Transfer Energy [J] !Hourly
841,1,ROOM_FE6D4BD5..FACE0,Surface Average Face Conduction Heat Transfer Energy [J] !Hourly
842,1,ROOM_FE6D4BD5..FACE8,Surface Average Face Conduction Heat Transfer Energy [J] !Hourly
843,1,ROOM_0FDDBA2B,Zone Infiltration Total Heat Loss Energy [J] !Hourly
844,1,ROOM_0FDDBA2B,Zone Infiltration Total Heat Gain Energy [J] !Hourly
845,1,ROOM_531E8078,Zone Infiltration Total Heat Loss Energy [J] !Hourly
846,1,ROOM_531E8078,Zone Infiltration Total Heat Gain Energy [J] !Hourly
847,1,ROOM_56521574,Zone Infiltration Total Heat Loss Energy [J] !Hourly
848,1,ROOM_56521574,Zone Infiltration Total Heat Gain Energy [J] !Hourly
849,1,ROOM_59A68702,Zone Infiltration Total Heat Loss Energy [J] !Hourly
850,1,ROOM_59A68702,Zone Infiltration Total Heat Gain Energy [J] !Hourly
851,1,ROOM_69C57780,Zone Infiltration Total Heat Loss Energy [J] !Hourly
852,1,ROOM_69C57780,Zone Infiltration Total Heat Gain Energy [J] !Hourly
853,1,ROOM_6B25590F,Zone Infiltration Total Heat Loss Energy [J] !Hourly
854,1,ROOM_6B25590F,Zone Infiltration Total Heat Gain Energy [J] !Hourly
855,1,ROOM_87F75E74,Zone Infiltration Total Heat Loss Energy [J] !Hourly
856,1,ROOM_87F75E74,Zone Infiltration Total Heat Gain Energy [J] !Hourly
857,1,ROOM_9A62749C,Zone Infiltration Total Heat Loss Energy [J] !Hourly
858,1,ROOM_9A62749C,Zone Infiltration Total Heat Gain Energy [J] !Hourly
859,1,ROOM_9B30FE72,Zone Infiltration Total Heat Loss Energy [J] !Hourly
860,1,ROOM_9B30FE72,Zone Infiltration Total Heat Gain Energy [J] !Hourly
861,1,ROOM_9C2FF06E,Zone Infiltration Total Heat Loss Energy [J] !Hourly
862,1,ROOM_9C2FF06E,Zone Infiltration Total Heat Gain Energy [J] !Hourly
863,1,ROOM_A2B21F44,Zone Infiltration Total Heat Loss Energy [J] !Hourly
864,1,ROOM_A2B21F44,Zone Infiltration Total Heat Gain Energy [J] !Hourly
865,1,ROOM_CAA40456,Zone Infiltration Total Heat Loss Energy [J] !Hourly
866,1,ROOM_CAA40456,Zone Infiltration Total Heat Gain Energy [J] !Hourly
867,1,ROOM_CD8806C1,Zone Infiltration Total Heat Loss Energy [J] !Hourly
868,1,ROOM_CD8806C1,Zone Infiltration Total Heat Gain Energy [J] !Hourly
869,1,ROOM_F5B2DE7D,Zone Infiltration Total Heat Loss Energy [J] !Hourly
870,1,ROOM_F5B2DE7D,Zone Infiltration Total Heat Gain Energy [J] !Hourly
871,1,ROOM_FE6D4BD5,Zone Infiltration Total Heat Loss Energy [J] !Hourly
872,1,ROOM_FE6D4BD5,Zone Infiltration Total Heat Gain Energy [J] !Hourly
1662,1,ROOM_0FDDBA2B IDEAL LOADS AIR SYSTEM,Zone Ideal Loads Supply Air Total Heating Energy [J] !Hourly
1711,1,ROOM_0FDDBA2B IDEAL LOADS AIR SYSTEM,Zone Ideal Loads Supply Air Total Cooling Energy [J] !Hourly
1760,1,ROOM_0FDDBA2B IDEAL LOADS AIR SYSTEM,Zone Ideal Loads Zone Total Heating Energy [J] !Hourly
1761,1,ROOM_0FDDBA2B IDEAL LOADS AIR SYSTEM,Zone Ideal Loads Zone Total Cooling Energy [J] !Hourly
1762,1,ROOM_531E8078 IDEAL LOADS AIR SYSTEM,Zone Ideal Loads Supply Air Total Heating Energy [J] !Hourly
1763,1,ROOM_531E8078 IDEAL LOADS AIR SYSTEM,Zone Ideal Loads Supply Air Total Cooling Energy [J] !Hourly
1764,1,ROOM_531E8078 IDEAL LOADS AIR SYSTEM,Zone Ideal Loads Zone Total Heating Energy [J] !Hourly
1765,1,ROOM_531E8078 IDEAL LOADS AIR SYSTEM,Zone Ideal Loads Zone Total Cooling Energy [J] !Hourly
1766,1,ROOM_56521574 IDEAL LOADS AIR SYSTEM,Zone Ideal Loads Supply Air Total Heating Energy [J] !Hourly
1767,1,ROOM_56521574 IDEAL LOADS AIR SYSTEM,Zone Ideal Loads Supply Air Total Cooling Energy [J] !Hourly
1768,1,ROOM_56521574 IDEAL LOADS AIR SYSTEM,Zone Ideal Loads Zone Total Heating Energy [J] !Hourly
1769,1,ROOM_56521574 IDEAL LOADS AIR SYSTEM,Zone Ideal Loads Zone Total Cooling Energy [J] !Hourly
1770,1,ROOM_59A68702 IDEAL LOADS AIR SYSTEM,Zone Ideal Loads Supply Air Total Heating Energy [J] !Hourly
1771,1,ROOM_59A68702 IDEAL LOADS AIR SYSTEM,Zone Ideal Loads Supply Air Total Cooling Energy [J] !Hourly
1772,1,ROOM_59A68702 IDEAL LOADS AIR SYSTEM,Zone Ideal Loads Zone Total Heating Energy [J] !Hourly
1773,1,ROOM_59A68702 IDEAL LOADS AIR SYSTEM,Zone Ideal Loads Zone Total Cooling Energy [J] !Hourly
1774,1,ROOM_69C57780 IDEAL LOADS AIR SYSTEM,Zone Ideal Loads Supply Air Total Heating Energy [J] !Hourly
1775,1,ROOM_69C57780 IDEAL LOADS AIR SYSTEM,Zone Ideal Loads Supply Air Total Cooling Energy [J] !Hourly
1776,1,ROOM_69C57780 IDEAL LOADS AIR SYSTEM,Zone Ideal Loads Zone Total Heating Energy [J] !Hourly
1777,1,ROOM_69C57780 IDEAL LOADS AIR SYSTEM,Zone Ideal Loads Zone Total Cooling Energy [J] !Hourly
1778,1,ROOM_6B25590F IDEAL LOADS AIR SYSTEM,Zone Ideal Loads Supply Air Total Heating Energy [J] !Hourly
1779,1,ROOM_6B25590F IDEAL LOADS AIR SYSTEM,Zone Ideal Loads Supply Air Total Cooling Energy [J] !Hourly
1780,1,ROOM_6B25590F IDEAL LOADS AIR SYSTEM,Zone Ideal Loads Zone Total Heating Energy [J] !Hourly
1781,1,ROOM_6B25590F IDEAL LOADS AIR SYSTEM,Zone Ideal Loads Zone Total Cooling Energy [J] !Hourly
1782,1,ROOM_87F75E74 IDEAL LOADS AIR SYSTEM,Zone Ideal Loads Supply Air Total Heating Energy [J] !Hourly
1783,1,ROOM_87F75E74 IDEAL LOADS AIR SYSTEM,Zone Ideal Loads Supply Air Total Cooling Energy [J] !Hourly
1784,1,ROOM_87F75E74 IDEAL LOADS AIR SYSTEM,Zone Ideal Loads Zone Total Heating Energy [J] !Hourly
1785,1,ROOM_87F75E74 IDEAL LOADS AIR SYSTEM,Zone Ideal Loads Zone Total Cooling Energy [J] !Hourly
1786,1,ROOM_9A62749C IDEAL LOADS AIR SYSTEM,Zone Ideal Loads Supply Air Total Heating Energy [J] !Hourly
1787,1,ROOM_9A62749C IDEAL LOADS AIR SYSTEM,Zone Ideal Loads Supply Air Total Cooling Energy [J] !Hourly
1788,1,ROOM_9A62749C IDEAL LOADS AIR SYSTEM,Zone Ideal Loads Zone Total Heating Energy [J] !Hourly
1789,1,ROOM_9A62749C IDEAL LOADS AIR SYSTEM,Zone Ideal Loads Zone Total Cooling Energy [J] !Hourly
1790,1,ROOM_9B30FE72 IDEAL LOADS AIR SYSTEM,Zone Ideal Loads Supply Air Total Heating Energy [J] !Hourly
1791,1,ROOM_9B30FE72 IDEAL LOADS AIR SYSTEM,Zone Ideal Loads Supply Air Total Cooling Energy [J] !Hourly
1792,1,ROOM_9B30FE72 IDEAL LOADS AIR SYSTEM,Zone Ideal Loads Zone Total Heating Energy [J] !Hourly
1793,1,ROOM_9B30FE72 IDEAL LOADS AIR SYSTEM,Zone Ideal Loads Zone Total Cooling Energy [J] !Hourly
1794,1,ROOM_9C2FF06E IDEAL LOADS AIR SYSTEM,Zone Ideal Loads Supply Air Total Heating Energy [J] !Hourly
1795,1,ROOM_9C2FF06E IDEAL LOADS AIR SYSTEM,Zone Ideal Loads Supply Air Total Cooling Energy [J] !Hourly
1796,1,ROOM_9C2FF06E IDEAL LOADS AIR SYSTEM,Zone Ideal Loads Zone Total Heating Energy [J] !Hourly
1797,1,ROOM_9C2FF06E IDEAL LOADS AIR SYSTEM,Zone Ideal Loads Zone Total Cooling Energy [J] !Hourly
1798,1,ROOM_A2B21F44 IDEAL LOADS AIR SYSTEM,Zone Ideal Loads Supply Air Total Heating Energy [J] !Hourly
1799,1,ROOM_A2B21F44 IDEAL LOADS AIR SYSTEM,Zone Ideal Loads Supply Air Total Cooling Energy [J] !Hourly
1800,1,ROOM_A2B21F44 IDEAL LOADS AIR SYSTEM,Zone Ideal Loads Zone Total Heating Energy [J] !Hourly
1801,1,ROOM_A2B21F44 IDEAL LOADS AIR SYSTEM,Zone Ideal Loads Zone Total Cooling Energy [J] !Hourly
1802,1,ROOM_CAA40456 IDEAL LOADS AIR SYSTEM,Zone Ideal Loads Supply Air Total Heating Energy [J] !Hourly
1803,1,ROOM_CAA40456 IDEAL LOADS AIR SYSTEM,Zone Ideal Loads Supply Air Total Cooling Energy [J] !Hourly
1804,1,ROOM_CAA40456 IDEAL LOADS AIR SYSTEM,Zone Ideal Loads Zone Total Heating Energy [J] !Hourly
1805,1,ROOM_CAA40456 IDEAL LOADS AIR SYSTEM,Zone Ideal Loads Zone Total Cooling Energy [J] !Hourly
1806,1,ROOM_CD8806C1 IDEAL LOADS AIR SYSTEM,Zone Ideal Loads Supply Air Total Heating Energy [J] !Hourly
1807,1,ROOM_CD8806C1 IDEAL LOADS AIR SYSTEM,Zone Ideal Loads Supply Air Total Cooling Energy [J] !Hourly
1808,1,ROOM_CD8806C1 IDEAL LOADS AIR SYSTEM,Zone Ideal Loads Zone Total Heating Energy [J] !Hourly
1809,1,ROOM_CD8806C1 IDEAL LOADS AIR SYSTEM,Zone Ideal Loads Zone Total Cooling Energy [J] !Hourly
1810,1,ROOM_F5B2DE7D IDEAL LOADS AIR SYSTEM,Zone Ideal Loads Supply Air Total Heating Energy [J] !Hourly
1811,1,ROOM_F5B2DE7D IDEAL LOADS AIR SYSTEM,Zone Ideal Loads Supply Air Total Cooling Energy [J] !Hourly
1812,1,ROOM_F5B2DE7D IDEAL LOADS AIR SYSTEM,Zone Ideal Loads Zone Total Heating Energy [J] !Hourly
1813,1,ROOM_F5B2DE7D IDEAL LOADS AIR SYSTEM,Zone Ideal Loads Zone Total Cooling Energy [J] !Hourly
1814,1,ROOM_FE6D4BD5 IDEAL LOADS AIR SYSTEM,Zone Ideal Loads Supply Air Total Heating Energy [J] !Hourly
1815,1,ROOM_FE6D4BD5 IDEAL LOADS AIR SYSTEM,Zone Ideal Loads Supply Air Total Cooling Energy [J] !Hourly
1816,1,ROOM_FE6D4BD5 IDEAL LOADS AIR SYSTEM,Zone Ideal Loads Zone Total Heating Energy [J] !Hourly
1817,1,ROOM_FE6D4BD5 IDEAL LOADS AIR SYSTEM,Zone Ideal Loads Zone Total Cooling Energy [J] !Hourly
End of Data Dictionary
1,RUN PERIOD 1,  42.37, -71.02,  -5.00,   6.00
2,1, 1, 1, 0, 1, 0.00,60.00,Sunday
7,0.0
8,0.0
9,0.0
10,0.0
11,0.0
12,0.0
13,0.0
14,0.0
15,0.0
16,0.0
17,0.0
18,0.0
19,0.0
20,0.0
21,0.0
664,0.0
665,0.0
666,0.0
667,0.0
668,0.0
669,0.0
670,0.0
671,0.0
672,0.0
673,0.0
674,0.0
675,0.0
676,0.0
677,0.0
678,0.0
679,0.0
680,365814.79913427736
681,0.0
682,134910.64822784338
683,0.0
684,224954.55098963076
685,0.0
686,142821.08389845579
687,0.0
688,160039.45776188756
689,0.0
690,365475.5315281253
691,0.0
692,469358.35938321668
693,0.0
694,423836.82238545638
695,0.0
696,408131.0354439873
697,0.0
698,96843.79883526062
699,0.0
700,149043.54500840265
701,0.0
702,119362.76156768619
703,0.0
704,187182.5790924257
705,0.0
706,137580.55035416326
707,0.0
708,257274.84302594697
709,0.0
710,282405.5720939455
711,0.0
712,245124.27966264665
713,0.0
714,256069.393577501
715,0.0
716,195428.0035433923
717,0.0
718,363169.3816016788
719,0.0
720,163033.924567949
721,0.0
722,-687423.1462948467
723,0.0
724,-96116.4628554147
725,-15425.688756573247
726,-22962.479304203764
727,-4613.55992865962
728,12775.092717785083
729,228931.7601190674
730,33480.60554494639
731,2031.1709432900223
732,15973.025952063745
733,0.0
734,-413806.34988348357
735,0.0
736,-105695.10533062936
737,4862.407225192685
738,-16631.969985085343
739,182715.02947363363
740,29536.847764786824
741,0.0
742,-149466.42758235886
743,11230.440102974733
744,9042.798752972152
745,-20506.7889697767
746,48599.14214699626
747,8826.912835210866
748,0.0
749,-665224.0437166761
750,-6403.976470307802
751,-2989.5886200156298
752,-6305.54848930483
753,-12308.40675851118
754,278596.7668987043
755,45590.75838159349
756,51814.055196072266
757,0.0
758,-274625.0480144028
759,0.0
760,-188483.60622612746
761,11298.057379535732
762,110368.2224501007
763,13574.234994797815
764,0.0
765,-680844.9802200656
766,-6471.460043448644
767,-22121.44041363907
768,-44885.92252287251
769,4031.9243168475429
770,280574.78357288709
771,44590.568838700005
772,22675.863634048757
773,5029.415421752283
774,0.0
775,-41556.80622062771
776,1735.896425412968
777,294.4896502773999
778,16756.47183103328
779,0.0
780,-104336.58444405263
781,0.0
782,-52217.67894283707
783,117.6726878854551
784,24478.157774635998
785,2544.3333371760697
786,25191.267680775294
787,-3594.1060105121098
788,0.0
789,-80198.6746006634
790,0.0
791,-62735.34131916847
792,22522.57332232228
793,3101.0391966335016
794,0.0
795,-476883.0052378019
796,23081.481577688268
797,-3660.846855124487
798,0.0
799,-268803.5166446422
800,237088.7405173083
801,36547.12909374049
802,7577.142973780623
803,554.3366258679635
804,-12815.311562789844
805,-14.89786349033362
806,9600.175540554934
807,2625.120636849982
808,11995.624883110228
809,1982.1574457800708
810,-7584.0019483541459
811,-19982.126496639812
812,-7281.678039555706
813,-6149.074991679113
814,14284.954614879685
815,4316.357637284453
816,21041.73634227881
817,7442.173292593201
818,4868.172259673308
819,0.0
820,-109659.00527501233
821,0.0
822,-244197.2061996012
823,78215.1757168354
824,7864.293804559478
825,20580.158903188334
826,4521.470417912721
827,0.0
828,-84219.54400032346
829,-7385.762754661853
830,13002.54435901657
831,1610.1268734305043
832,14095.618498753112
833,19498.927431345168
834,-15295.592747275357
835,0.0
836,-161066.72303661525
837,0.0
838,-90310.58925607996
839,-5965.208371321759
840,8374.481120906867
841,59436.287533634175
842,8398.165835910686
843,309504.6167711127
844,0.0
845,222918.0549416015
846,0.0
847,97467.71457115868
848,0.0
849,214683.45357660025
850,0.0
851,568164.6266780543
852,0.0
853,243902.56259346385
854,0.0
855,71312.3983420588
856,0.0
857,177214.63051248753
858,0.0
859,222984.18493260965
860,0.0
861,327647.5845190769
862,0.0
863,0.0
864,0.0
865,0.0
866,0.0
867,319702.9953734654
868,0.0
869,123723.7888118441
870,0.0