Program Version,EnergyPlus, Version 9.3.0-baff08990c, YMD=2021.04.24 20:46
1,5,Environment Title[],Latitude[deg],Longitude[deg],Time Zone[],Elevation[m]
2,8,Day of Simulation[],Month[],Day of Month[],DST Indicator[1=yes 0=no],Hour[],StartMinute[],EndMinute[],DayType
3,5,Cumulative Day of Simulation[],Month[],Day of Month[],DST Indicator[1=yes 0=no],DayType  ! When Daily Report Variables Requested
4,2,Cumulative Days of Simulation[],Month[]  ! When Monthly Report Variables Requested
5,1,Cumulative Days of Simulation[] ! When Run Period Report Variables Requested
6,1,Calendar Year of Simulation[] ! When Annual Report Variables Requested
7,1,ROOM_00626619,Zone People Total Heating Energy [J] !Hourly
8,1,ROOM_4FDA59A8,Zone People Total Heating Energy [J] !Hourly
9,1,ROOM_7041AAF2,Zone People Total Heating Energy [J] !Hourly
10,1,ROOM_892D3741,Zone People Total Heating Energy [J] !Hourly
11,1,ROOM_8D511F33,Zone People Total Heating Energy [J] !Hourly
12,1,ROOM_8E679CF0,Zone People Total Heating Energy [J] !Hourly
13,1,ROOM_ABE48A55,Zone People Total Heating Energy [J] !Hourly
14,1,ROOM_CC66DFB6,Zone People Total Heating Energy [J] !Hourly
15,1,ROOM_E5C7E7FA,Zone People Total Heating Energy [J] !Hourly
16,1,ROOM_E878B1DA,Zone People Total Heating Energy [J] !Hourly
17,1,ROOM_FAB1FF2A,Zone People Total Heating Energy [J] !Hourly
508,1,ROOM_00626619,Zone Windows Total Transmitted Solar Radiation Energy [J] !Hourly
509,1,ROOM_4FDA59A8,Zone Windows Total Transmitted Solar Radiation Energy [J] !Hourly
510,1,ROOM_7041AAF2,Zone Windows Total Transmitted Solar Radiation Energy [J] !Hourly
511,1,ROOM_892D3741,Zone Windows Total Transmitted Solar Radiation Energy [J] !Hourly
512,1,ROOM_8D511F33,Zone Windows Total Transmitted Solar Radiation Energy [J] !Hourly
513,1,ROOM_8E679CF0,Zone Windows Total Transmitted Solar Radiation Energy [J] !Hourly
514,1,ROOM_ABE48A55,Zone Windows Total Transmitted Solar Radiation Energy [J] !Hourly
515,1,ROOM_CC66DFB6,Zone Windows Total Transmitted Solar Radiation Energy [J] !Hourly
516,1,ROOM_E5C7E7FA,Zone Windows Total Transmitted Solar Radiation Energy [J] !Hourly
517,1,ROOM_E878B1DA,Zone Windows Total Transmitted Solar Radiation Energy [J] !Hourly
518,1,ROOM_FAB1FF2A,Zone Windows Total Transmitted Solar Radiation Energy [J] !Hourly
519,1,ROOM_00626619..FACE2_GLZ1,Surface Window Heat Gain Energy [J] !Hourly
520,1,ROOM_00626619..FACE2_GLZ1,Surface Window Heat Loss Energy [J] !Hourly
521,1,ROOM_00626619..FACE3_GLZ1,Surface Window Heat Gain Energy [J] !Hourly
522,1,ROOM_00626619..FACE3_GLZ1,Surface Window Heat Loss Energy [J] !Hourly
523,1,ROOM_4FDA59A8..FACE2_GLZ1,Surface Window Heat Gain Energy [J] !Hourly
524,1,ROOM_4FDA59A8..FACE2_GLZ1,Surface Window Heat Loss Energy [J] !Hourly
525,1,ROOM_4FDA59A8..FACE4_GLZ1,Surface Window Heat Gain Energy [J] !Hourly
526,1,ROOM_4FDA59A8..FACE4_GLZ1,Surface Window Heat Loss Energy [J] !Hourly
527,1,ROOM_7041AAF2..FACE1_GLZ1,Surface Window Heat Gain Energy [J] !Hourly
528,1,ROOM_7041AAF2..FACE1_GLZ1,Surface Window Heat Loss Energy [J] !Hourly
529,1,ROOM_7041AAF2..FACE2_GLZ1,Surface Window Heat Gain Energy [J] !Hourly
530,1,ROOM_7041AAF2..FACE2_GLZ1,Surface Window Heat Loss Energy [J] !Hourly
531,1,ROOM_7041AAF2..FACE5_GLZ1,Surface Window Heat Gain Energy [J] !Hourly
532,1,ROOM_7041AAF2..FACE5_GLZ1,Surface Window Heat Loss Energy [J] !Hourly
533,1,ROOM_892D3741..FACE1_GLZ1,Surface Window Heat Gain Energy [J] !Hourly
534,1,ROOM_892D3741..FACE1_GLZ1,Surface Window Heat Loss Energy [J] !Hourly
535,1,ROOM_892D3741..FACE4_GLZ1,Surface Window Heat Gain Energy [J] !Hourly
536,1,ROOM_892D3741..FACE4_GLZ1,Surface Window Heat Loss Energy [J] !Hourly
537,1,ROOM_8D511F33..FACE1_GLZ1,Surface Window Heat Gain Energy [J] !Hourly
538,1,ROOM_8D511F33..FACE1_GLZ1,Surface Window Heat Loss Energy [J] !Hourly
539,1,ROOM_8D511F33..FACE4_GLZ1,Surface Window Heat Gain Energy [J] !Hourly
540,1,ROOM_8D511F33..FACE4_GLZ1,Surface Window Heat Loss Energy [J] !Hourly
541,1,ROOM_8E679CF0..FACE3_GLZ1,Surface Window Heat Gain Energy [J] !Hourly
542,1,ROOM_8E679CF0..FACE3_GLZ1,Surface Window Heat Loss Energy [J] !Hourly
543,1,ROOM_ABE48A55..FACE1_GLZ1,Surface Window Heat Gain Energy [J] !Hourly
544,1,ROOM_ABE48A55..FACE1_GLZ1,Surface Window Heat Loss Energy [J] !Hourly
545,1,ROOM_ABE48A55..FACE5_GLZ1,Surface Window Heat Gain Energy [J] !Hourly
546,1,ROOM_ABE48A55..FACE5_GLZ1,Surface Window Heat Loss Energy [J] !Hourly
547,1,ROOM_ABE48A55..FACE6_GLZ1,Surface Window Heat Gain Energy [J] !Hourly
548,1,ROOM_ABE48A55..FACE6_GLZ1,Surface Window Heat Loss Energy [J] !Hourly
549,1,ROOM_CC66DFB6..FACE1_GLZ1,Surface Window Heat Gain Energy [J] !Hourly
550,1,ROOM_CC66DFB6..FACE1_GLZ1,Surface Window Heat Loss Energy [J] !Hourly
551,1,ROOM_E5C7E7FA..FACE1_GLZ1,Surface Window Heat Gain Energy [J] !Hourly
552,1,ROOM_E5C7E7FA..FACE1_GLZ1,Surface Window Heat Loss Energy [J] !Hourly
553,1,ROOM_E5C7E7FA..FACE2_GLZ1,Surface Window Heat Gain Energy [J] !Hourly
554,1,ROOM_E5C7E7FA..FACE2_GLZ1,Surface Window Heat Loss Energy [J] !Hourly
555,1,ROOM_E878B1DA..FACE1_GLZ1,Surface Window Heat Gain Energy [J] !Hourly
556,1,ROOM_E878B1DA..FACE1_GLZ1,Surface Window Heat Loss Energy [J] !Hourly
557,1,ROOM_FAB1FF2A..FACE2_GLZ1,Surface Window Heat Gain Energy [J] !Hourly
558,1,ROOM_FAB1FF2A..FACE2_GLZ1,Surface Window Heat Loss Energy [J] !Hourly
559,1,ROOM_00626619..FACE1,Surface Average Face Conduction Heat Transfer Energy [J] !Hourly
560,1,ROOM_00626619..FACE2,Surface Outside Face Solar Radiation Heat Gain Energy [J] !Hourly
561,1,ROOM_00626619..FACE2,Surface Average Face Conduction Heat Transfer Energy [J] !Hourly
562,1,ROOM_00626619..FACE3,Surface Outside Face Solar Radiation Heat Gain Energy [J] !Hourly
563,1,ROOM_00626619..FACE3,Surface Average Face Conduction Heat Transfer Energy [J] !Hourly
564,1,ROOM_00626619..FACE4,Surface Average Face Conduction Heat Transfer Energy [J] !Hourly
565,1,ROOM_00626619..FACE5,Surface Average Face Conduction Heat Transfer Energy [J] !Hourly
566,1,ROOM_00626619..FACE0,Surface Average Face Conduction Heat Transfer Energy [J] !Hourly
567,1,ROOM_00626619..FACE6,Surface Average Face Conduction Heat Transfer Energy [J] !Hourly
568,1,ROOM_4FDA59A8..FACE1,Surface Average Face Conduction Heat Transfer Energy [J] !Hourly
569,1,ROOM_4FDA59A8..FACE2,Surface Outside Face Solar Radiation Heat Gain Energy [J] !Hourly
570,1,ROOM_4FDA59A8..FACE2,Surface Average Face Conduction Heat Transfer Energy [J] !Hourly
571,1,ROOM_4FDA59A8..FACE3,Surface Average Face Conduction Heat Transfer Energy [J] !Hourly
572,1,ROOM_4FDA59A8..FACE4,Surface Outside Face Solar Radiation Heat Gain Energy [J] !Hourly
573,1,ROOM_4FDA59A8..FACE4,Surface Average Face Conduction Heat Transfer Energy [J] !Hourly
574,1,ROOM_4FDA59A8..FACE0,Surface Average Face Conduction Heat Transfer Energy [J] !Hourly
575,1,ROOM_4FDA59A8..FACE5,Surface Average Face Conduction Heat Transfer Energy [J] !Hourly
576,1,ROOM_7041AAF2..FACE1,Surface Outside Face Solar Radiation Heat Gain Energy [J] !Hourly
577,1,ROOM_7041AAF2..FACE1,Surface Average Face Conduction Heat Transfer Energy [J] !Hourly
578,1,ROOM_7041AAF2..FACE2,Surface Outside Face Solar Radiation Heat Gain Energy [J] !Hourly
579,1,ROOM_7041AAF2..FACE2,Surface Average Face Conduction Heat Transfer Energy [J] !Hourly
580,1,ROOM_7041AAF2..FACE3,Surface Average Face Conduction Heat Transfer Energy [J] !Hourly
581,1,ROOM_7041AAF2..FACE4,Surface Average Face Conduction Heat Transfer Energy [J] !Hourly
582,1,ROOM_7041AAF2..FACE5,Surface Outside Face Solar Radiation Heat Gain Energy [J] !Hourly
583,1,ROOM_7041AAF2..FACE5,Surface Average Face Conduction Heat Transfer Energy [J] !Hourly
584,1,ROOM_7041AAF2..FACE0,Surface Average Face Conduction Heat Transfer Energy [J] !Hourly
585,1,ROOM_7041AAF2..FACE6,Surface Average Face Conduction Heat Transfer Energy [J] !Hourly
586,1,ROOM_892D3741..FACE1,Surface Outside Face Solar Radiation Heat Gain Energy [J] !Hourly
587,1,ROOM_892D3741..FACE1,Surface Average Face Conduction Heat Transfer Energy [J] !Hourly
588,1,ROOM_892D3741..FACE2,Surface Average Face Conduction Heat Transfer Energy [J] !Hourly
589,1,ROOM_892D3741..FACE3,Surface Average Face Conduction Heat Transfer Energy [J] !Hourly
590,1,ROOM_892D3741..FACE4,Surface Outside Face Solar Radiation Heat Gain Energy [J] !Hourly
591,1,ROOM_892D3741..FACE4,Surface Average Face Conduction Heat Transfer Energy [J] !Hourly
592,1,ROOM_892D3741..FACE0,Surface Average Face Conduction Heat Transfer Energy [J] !Hourly
593,1,ROOM_892D3741..FACE5,Surface Average Face Conduction Heat Transfer Energy [J] !Hourly
594,1,ROOM_8D511F33..FACE1,Surface Outside Face Solar Radiation Heat Gain Energy [J] !Hourly
595,1,ROOM_8D511F33..FACE1,Surface Average Face Conduction Heat Transfer Energy [J] !Hourly
596,1,ROOM_8D511F33..FACE2,Surface Average Face Conduction Heat Transfer Energy [J] !Hourly
597,1,ROOM_8D511F33..FACE3,Surface Average Face Conduction Heat Transfer Energy [J] !Hourly
598,1,ROOM_8D511F33..FACE4,Surface Outside Face Solar Radiation Heat Gain Energy [J] !Hourly
599,1,ROOM_8D511F33..FACE4,Surface Average Face Conduction Heat Transfer Energy [J] !Hourly
600,1,ROOM_8D511F33..FACE0,Surface Average Face Conduction Heat Transfer Energy [J] !Hourly
601,1,ROOM_8D511F33..FACE5,Surface Average Face Conduction Heat Transfer Energy [J] !Hourly
602,1,ROOM_8E679CF0..FACE1,Surface Average Face Conduction Heat Transfer Energy [J] !Hourly
603,1,ROOM_8E679CF0..FACE2,Surface Average Face Conduction Heat Transfer Energy [J] !Hourly
604,1,ROOM_8E679CF0..FACE3,Surface Outside Face Solar Radiation Heat Gain Energy [J] !Hourly
605,1,ROOM_8E679CF0..FACE3,Surface Average Face Conduction Heat Transfer Energy [J] !Hourly
606,1,ROOM_8E679CF0..FACE4,Surface Average Face Conduction Heat Transfer Energy [J] !Hourly
607,1,ROOM_8E679CF0..FACE0,Surface Average Face Conduction Heat Transfer Energy [J] !Hourly
608,1,ROOM_8E679CF0..FACE5,Surface Average Face Conduction Heat Transfer Energy [J] !Hourly
609,1,ROOM_ABE48A55..FACE1,Surface Outside Face Solar Radiation Heat Gain Energy [J] !Hourly
610,1,ROOM_ABE48A55..FACE1,Surface Average Face Conduction Heat Transfer Energy [J] !Hourly
611,1,ROOM_ABE48A55..FACE2,Surface Average Face Conduction Heat Transfer Energy [J] !Hourly
612,1,ROOM_ABE48A55..FACE3,Surface Average Face Conduction Heat Transfer Energy [J] !Hourly
613,1,ROOM_ABE48A55..FACE4,Surface Average Face Conduction Heat Transfer Energy [J] !Hourly
614,1,ROOM_ABE48A55..FACE5,Surface Outside Face Solar Radiation Heat Gain Energy [J] !Hourly
615,1,ROOM_ABE48A55..FACE5,Surface Average Face Conduction Heat Transfer Energy [J] !Hourly
616,1,ROOM_ABE48A55..FACE6,Surface Outside Face Solar Radiation Heat Gain Energy [J] !Hourly
617,1,ROOM_ABE48A55..FACE6,Surface Average Face Conduction Heat Transfer Energy [J] !Hourly
618,1,ROOM_ABE48A55..FACE0,Surface Average Face Conduction Heat Transfer Energy [J] !Hourly
619,1,ROOM_ABE48A55..FACE7,Surface Average Face Conduction Heat Transfer Energy [J] !Hourly
620,1,ROOM_CC66DFB6..FACE1,Surface Outside Face Solar Radiation Heat Gain Energy [J] !Hourly
621,1,ROOM_CC66DFB6..FACE1,Surface Average Face Conduction Heat Transfer Energy [J] !Hourly
622,1,ROOM_CC66DFB6..FACE2,Surface Average Face Conduction Heat Transfer Energy [J] !Hourly
623,1,ROOM_CC66DFB6..FACE3,Surface Average Face Conduction Heat Transfer Energy [J] !Hourly
624,1,ROOM_CC66DFB6..FACE4,Surface Average Face Conduction Heat Transfer Energy [J] !Hourly
625,1,ROOM_CC66DFB6..FACE0,Surface Average Face Conduction Heat Transfer Energy [J] !Hourly
626,1,ROOM_CC66DFB6..FACE5,Surface Average Face Conduction Heat Transfer Energy [J] !Hourly
627,1,ROOM_E5C7E7FA..FACE1,Surface Outside Face Solar Radiation Heat Gain Energy [J] !Hourly
628,1,ROOM_E5C7E7FA..FACE1,Surface Average Face Conduction Heat Transfer Energy [J] !Hourly
629,1,ROOM_E5C7E7FA..FACE2,Surface Outside Face Solar Radiation Heat Gain Energy [J] !Hourly
630,1,ROOM_E5C7E7FA..FACE2,Surface Average Face Conduction Heat Transfer Energy [J] !Hourly
631,1,ROOM_E5C7E7FA..FACE3,Surface Average Face Conduction Heat Transfer Energy [J] !Hourly
632,1,ROOM_E5C7E7FA..FACE4,Surface Average Face Conduction Heat Transfer Energy [J] !Hourly
633,1,ROOM_E5C7E7FA..FACE0,Surface Average Face Conduction Heat Transfer Energy [J] !Hourly
634,1,ROOM_E5C7E7FA..FACE5,Surface Average Face Conduction Heat Transfer Energy [J] !Hourly
635,1,ROOM_E878B1DA..FACE1,Surface Outside Face Solar Radiation Heat Gain Energy [J] !Hourly
636,1,ROOM_E878B1DA..FACE1,Surface Average Face Conduction Heat Transfer Energy [J] !Hourly
637,1,ROOM_E878B1DA..FACE2,Surface Average Face Conduction Heat Transfer Energy [J] !Hourly
638,1,ROOM_E878B1DA..FACE3,Surface Average Face Conduction Heat Transfer Energy [J] !Hourly
639,1,ROOM_E878B1DA..FACE4,Surface Average Face Conduction Heat Transfer Energy [J] !Hourly
640,1,ROOM_E878B1DA..FACE0,Surface Average Face Conduction Heat Transfer Energy [J] !Hourly
641,1,ROOM_E878B1DA..FACE5,Surface Average Face Conduction Heat Transfer Energy [J] !Hourly
642,1,ROOM_FAB1FF2A..FACE1,Surface Average Face Conduction Heat Transfer Energy [J] !Hourly
643,1,ROOM_FAB1FF2A..FACE2,Surface Outside Face Solar Radiation Heat Gain Energy [J] !Hourly
644,1,ROOM_FAB1FF2A..FACE2,Surface Average Face Conduction Heat Transfer Energy [J] !Hourly
645,1,ROOM_FAB1FF2A..FACE3,Surface Average Face Conduction Heat Transfer Energy [J] !Hourly
646,1,ROOM_FAB1FF2A..FACE4,Surface Average Face Conduction Heat Transfer Energy [J] !Hourly
647,1,ROOM_FAB1FF2A..FACE0,Surface Average Face Conduction Heat Transfer Energy [J] !Hourly
648,1,ROOM_FAB1FF2A..FACE5,Surface Average Face Conduction Heat Transfer Energy [J] !Hourly
649,1,ROOM_00626619,Zone Infiltration Total Heat Loss Energy [J] !Hourly
650,1,ROOM_00626619,Zone Infiltration Total Heat Gain Energy [J] !Hourly
651,1,ROOM_4FDA59A8,Zone Infiltration Total Heat Loss Energy [J] !Hourly
652,1,ROOM_4FDA59A8,Zone Infiltration Total Heat Gain Energy [J] !Hourly
653,1,ROOM_7041AAF2,Zone Infiltration Total Heat Loss Energy [J] !Hourly
654,1,ROOM_7041AAF2,Zone Infiltration Total Heat Gain Energy [J] !Hourly
655,1,ROOM_892D3741,Zone Infiltration Total Heat Loss Energy [J] !Hourly
656,1,ROOM_892D3741,Zone Infiltration Total Heat Gain Energy [J] !Hourly
657,1,ROOM_8D511F33,Zone Infiltration Total Heat Loss Energy [J] !Hourly
658,1,ROOM_8D511F33,Zone Infiltration Total Heat Gain Energy [J] !Hourly
659,1,ROOM_8E679CF0,Zone Infiltration Total Heat Loss Energy [J] !Hourly
660,1,ROOM_8E679CF0,Zone Infiltration Total Heat Gain Energy [J] !Hourly
661,1,ROOM_ABE48A55,Zone Infiltration Total Heat Loss Energy [J] !Hourly
662,1,ROOM_ABE48A55,Zone Infiltration Total Heat Gain Energy [J] !Hourly
663,1,ROOM_CC66DFB6,Zone Infiltration Total Heat Loss Energy [J] !Hourly
664,1,ROOM_CC66DFB6,Zone Infiltration Total Heat Gain Energy [J] !Hourly
665,1,ROOM_E5C7E7FA,Zone Infiltration Total Heat Loss Energy [J] !Hourly
666,1,ROOM_E5C7E7FA,Zone Infiltration Total Heat Gain Energy [J] !Hourly
667,1,ROOM_E878B1DA,Zone Infiltration Total Heat Loss Energy [J] !Hourly
668,1,ROOM_E878B1DA,Zone Infiltration Total Heat Gain Energy [J] !Hourly
669,1,ROOM_FAB1FF2A,Zone Infiltration Total Heat Loss Energy [J] !Hourly
670,1,ROOM_FAB1FF2A,Zone Infiltration Total Heat Gain Energy [J] !Hourly
1308,1,ROOM_00626619 IDEAL LOADS AIR SYSTEM,Zone Ideal Loads Supply Air Total Heating Energy [J] !Hourly
1357,1,ROOM_00626619 IDEAL LOADS AIR SYSTEM,Zone Ideal Loads Supply Air Total Cooling Energy [J] !Hourly
1406,1,ROOM_00626619 IDEAL LOADS AIR SYSTEM,Zone Ideal Loads Zone Total Heating Energy [J] !Hourly
1407,1,ROOM_00626619 IDEAL LOADS AIR SYSTEM,Zone Ideal Loads Zone Total Cooling Energy [J] !Hourly
1408,1,ROOM_4FDA59A8 IDEAL LOADS AIR SYSTEM,Zone Ideal Loads Supply Air Total Heating Energy [J] !Hourly
1409,1,ROOM_4FDA59A8 IDEAL LOADS AIR SYSTEM,Zone Ideal Loads Supply Air Total Cooling Energy [J] !Hourly
1410,1,ROOM_4FDA59A8 IDEAL LOADS AIR SYSTEM,Zone Ideal Loads Zone Total Heating Energy [J] !Hourly
1411,1,ROOM_4FDA59A8 IDEAL LOADS AIR SYSTEM,Zone Ideal Loads Zone Total Cooling Energy [J] !Hourly
1412,1,ROOM_7041AAF2 IDEAL LOADS AIR SYSTEM,Zone Ideal Loads Supply Air Total Heating Energy [J] !Hourly
1413,1,ROOM_7041AAF2 IDEAL LOADS AIR SYSTEM,Zone Ideal Loads Supply Air Total Cooling Energy [J] !Hourly
1414,1,ROOM_7041AAF2 IDEAL LOADS AIR SYSTEM,Zone Ideal Loads Zone Total Heating Energy [J] !Hourly
1415,1,ROOM_7041AAF2 IDEAL LOADS AIR SYSTEM,Zone Ideal Loads Zone Total Cooling Energy [J] !Hourly
1416,1,ROOM_892D3741 IDEAL LOADS AIR SYSTEM,Zone Ideal Loads Supply Air Total Heating Energy [J] !Hourly
1417,1,ROOM_892D3741 IDEAL LOADS AIR SYSTEM,Zone Ideal Loads Supply Air Total Cooling Energy [J] !Hourly
1418,1,ROOM_892D3741 IDEAL LOADS AIR SYSTEM,Zone Ideal Loads Zone Total Heating Energy [J] !Hourly
1419,1,ROOM_892D3741 IDEAL LOADS AIR SYSTEM,Zone Ideal Loads Zone Total Cooling Energy [J] !Hourly
1420,1,ROOM_8D511F33 IDEAL LOADS AIR SYSTEM,Zone Ideal Loads Supply Air Total Heating Energy [J] !Hourly
1421,1,ROOM_8D511F33 IDEAL LOADS AIR SYSTEM,Zone Ideal Loads Supply Air Total Cooling Energy [J] !Hourly
1422,1,ROOM_8D511F33 IDEAL LOADS AIR SYSTEM,Zone Ideal Loads Zone Total Heating Energy [J] !Hourly
1423,1,ROOM_8D511F33 IDEAL LOADS AIR SYSTEM,Zone Ideal Loads Zone Total Cooling Energy [J] !Hourly
1424,1,ROOM_8E679CF0 IDEAL LOADS AIR SYSTEM,Zone Ideal Loads Supply Air Total Heating Energy [J] !Hourly
1425,1,ROOM_8E679CF0 IDEAL LOADS AIR SYSTEM,Zone Ideal Loads Supply Air Total Cooling Energy [J] !Hourly
1426,1,ROOM_8E679CF0 IDEAL LOADS AIR SYSTEM,Zone Ideal Loads Zone Total Heating Energy [J] !Hourly
1427,1,ROOM_8E679CF0 IDEAL LOADS AIR SYSTEM,Zone Ideal Loads Zone Total Cooling Energy [J] !Hourly
1428,1,ROOM_ABE48A55 IDEAL LOADS AIR SYSTEM,Zone Ideal Loads Supply Air Total Heating Energy [J] !Hourly
1429,1,ROOM_ABE48A55 IDEAL LOADS AIR SYSTEM,Zone Ideal Loads Supply Air Total Cooling Energy [J] !Hourly
1430,1,ROOM_ABE48A55 IDEAL LOADS AIR SYSTEM,Zone Ideal Loads Zone Total Heating Energy [J] !Hourly
1431,1,ROOM_ABE48A55 IDEAL LOADS AIR SYSTEM,Zone Ideal Loads Zone Total Cooling Energy [J] !Hourly
1432,1,ROOM_CC66DFB6 IDEAL LOADS AIR SYSTEM,Zone Ideal Loads Supply Air Total Heating Energy [J] !Hourly
1433,1,ROOM_CC66DFB6 IDEAL LOADS AIR SYSTEM,Zone Ideal Loads Supply Air Total Cooling Energy [J] !Hourly
1434,1,ROOM_CC66DFB6 IDEAL LOADS AIR SYSTEM,Zone Ideal Loads Zone Total Heating Energy [J] !Hourly
1435,1,ROOM_CC66DFB6 IDEAL LOADS AIR SYSTEM,Zone Ideal Loads Zone Total Cooling Energy [J] !Hourly
1436,1,ROOM_E5C7E7FA IDEAL LOADS AIR SYSTEM,Zone Ideal Loads Supply Air Total Heating Energy [J] !Hourly
1437,1,ROOM_E5C7E7FA IDEAL LOADS AIR SYSTEM,Zone Ideal Loads Supply Air Total Cooling Energy [J] !Hourly
1438,1,ROOM_E5C7E7FA IDEAL LOADS AIR SYSTEM,Zone Ideal Loads Zone Total Heating Energy [J] !Hourly
1439,1,ROOM_E5C7E7FA IDEAL LOADS AIR SYSTEM,Zone Ideal Loads Zone Total Cooling Energy [J] !Hourly
1440,1,ROOM_E878B1DA IDEAL LOADS AIR SYSTEM,Zone Ideal Loads Supply Air Total Heating Energy [J] !Hourly
1441,1,ROOM_E878B1DA IDEAL LOADS AIR SYSTEM,Zone Ideal Loads Supply Air Total Cooling Energy [J] !Hourly
1442,1,ROOM_E878B1DA IDEAL LOADS AIR SYSTEM,Zone Ideal Loads Zone Total Heating Energy [J] !Hourly
1443,1,ROOM_E878B1DA IDEAL LOADS AIR SYSTEM,Zone Ideal Loads Zone Total Cooling Energy [J] !Hourly
1444,1,ROOM_FAB1FF2A IDEAL LOADS AIR SYSTEM,Zone Ideal Loads Supply Air Total Heating Energy [J] !Hourly
1445,1,ROOM_FAB1FF2A IDEAL LOADS AIR SYSTEM,Zone Ideal Loads Supply Air Total Cooling Energy [J] !Hourly
1446,1,ROOM_FAB1FF2A IDEAL LOADS AIR SYSTEM,Zone Ideal Loads Zone Total Heating Energy [J] !Hourly
1447,1,ROOM_FAB1FF2A IDEAL LOADS AIR SYSTEM,Zone Ideal Loads Zone Total Cooling Energy [J] !Hourly
End of Data Dictionary
1,RUN PERIOD 1,  42.37, -71.02,  -5.00,   6.00
2,1, 1, 1, 0, 1, 0.00,60.00,Sunday
7,0.0
8,0.0
9,0.0
10,0.0
11,0.0
12,0.0
13,0.0
14,0.0
15,0.0
16,0.0
17,0.0
508,0.0
509,0.0
510,0.0
511,0.0
512,0.0
513,0.0
514,0.0
515,0.0
516,0.0
517,0.0
518,0.0
519,0.0
520,525965.9015023662
521,0.0
522,203793.2719312294
523,0.0
524,59368.457501167206
525,0.0
526,54946.756085401634
527,0.0
528,364557.05230910758
529,0.0
530,169044.2014386121
531,0.0
532,67950.15154647964
533,0.0
534,171528.66070237134
535,0.0
536,249105.6786581179
537,0.0
538,346514.60910857588
539,0.0
540,303516.2803784037
541,0.0
542,273982.12981890197
543,0.0
544,316044.2540753148
545,0.0
546,55340.764945867755
547,0.0
548,587491.1481950658
549,0.0
550,305047.46128197779
551,0.0
552,212115.95650264866
553,0.0
554,298048.97634810299
555,0.0
556,273649.61699253946
557,0.0
558,259904.0505187335
559,2943.4463708571395
560,0.0
561,-359182.90793260346
562,0.0
563,-91450.67466607936
564,-7821.479121506172
565,-5709.5120550871829
566,90447.95883284674
567,8408.861988842193
568,6363.498470154078
569,0.0
570,-40060.77259656937
571,-5700.668890619515
572,0.0
573,-25307.194921203733
574,7854.434527991601
575,858.4624091937941
576,0.0
577,-280266.95024131369
578,0.0
579,-132069.09795211099
580,-1177.4017465515117
581,-8938.352467704517
582,0.0
583,-30454.374731788514
584,72930.27267168148
585,6513.682134686977
586,0.0
587,-160100.05322739203
588,4977.980846101691
589,4160.533126186928
590,0.0
591,-113811.30313498821
592,50073.245495953124
593,3681.3717698946118
594,0.0
595,-640662.7557950015
596,19738.813494326885
597,-26714.152851762774
598,0.0
599,-288544.20209623328
600,311666.449401258
601,48880.94484422105
602,35946.54310399981
603,-4089.8605991536667
604,0.0
605,-118517.02472781585
606,-4879.189515336665
607,31302.232886598966
608,5908.085106915031
609,0.0
610,-300821.5560077772
611,33052.83993520093
612,38273.834270441956
613,4186.05764037598
614,0.0
615,-25826.594353533805
616,0.0
617,-259462.72970838994
618,167981.30906593833
619,22984.90093474021
620,0.0
621,-556539.8192602599
622,-24386.90943876341
623,-29948.06107416304
624,7176.555813540486
625,232677.79207135243
626,38194.405493549006
627,0.0
628,-398357.30393284189
629,0.0
630,-208126.44119595368
631,-4925.127449489299
632,34142.8140168455
633,168015.25755796003
634,25286.891939566238
635,0.0
636,-498468.69892359446
637,4831.014016403126
638,-33080.639406253096
639,-8063.8738044033439
640,214067.48330975779
641,35734.562809056355
642,7068.570013124802
643,0.0
644,-176040.64001477193
645,-7691.20951459708
646,3537.8533334973765
647,43833.145115915395
648,6021.515045747763
649,468143.88335368348
650,0.0
651,75287.92923115424
652,0.0
653,404076.87937523677
654,0.0
655,279898.3738894754
656,0.0
657,393246.2628796423
658,0.0
659,180272.2558152303
660,0.0
661,607723.4786323622
662,0.0
663,180148.47025625403
664,0.0
665,315638.35219059596
666,0.0
667,161241.65002465814
668,0.0
669,161582.8126033145
670,0.0
1308,2059058.611207911
1357,0.0
1406,1321488.7941970844
1407,0.0
1408,308027.58526906717
1409,0.0
1410,225737.4202091174
1411,0.0
1412,1669182.3547003554
1413,0.0
1414,1115446.7240247676
1415,0.0
1416,1045584.5772850845
1417,0.0
1418,800949.2863256879
1419,0.0
1420,1084887.4750690987
1421,0.0
1422,442500.1782098477
1423,0.0
1424,893203.3918593898
1425,0.0
1426,404977.3972701348
1427,0.0
1428,2605938.491757097
1429,0.0
1430,1369005.027657579
1431,0.0
1432,553470.173035936
1433,0.0
1434,68310.26663948919
1435,67742.09985503968
1436,926495.8756601805
1437,0.0
1438,523877.52565927899
1439,0.0
1440,469023.71681695998
1441,0.0
1442,61104.70436459681
1443,86955.20183959406
1444,747996.2269032385
1445,0.0
1446,393842.17390701945
1447,0.0
2,1, 1, 1, 0, 2, 0.00,60.00,Sunday
7,0.0
8,0.0
9,0.0
10,0.0
11,0.0
12,0.0
13,0.0
14,0.0
15,0.0
16,0.0
17,0.0
508,0.0
509,0.0
510,0.0
511,0.0
512,0.0
513,0.0
514,0.0
515,0.0
516,0.0
517,0.0
518,0.0
519,0.0
520,407495.592663183
521,0.0
522,157707.92706110836
523,0.0
524,46177.58688795098
525,0.0
526,43217.190489235996
527,0.0
528,283056.88307457658
529,0.0
530,132596.17283516166
531,0.0
532,52993.0546371948
533,0.0
534,133458.85584885317
535,0.0
536,191289.4197062217
537,0.0
538,271070.9932926615
539,0.0
540,237234.9919630324
541,0.0
542,215503.97586567194
543,0.0
544,245418.72058925758
545,0.0
546,43476.416930019754
547,0.0
548,456904.9278747537
549,0.0
550,239516.356460225
551,0.0
552,165430.62134367688
553,0.0
554,232525.557224461
555,0.0
556,214960.7166593492
557,0.0
558,202425.36002154696
559,2572.467152517925
560,0.0
561,177507.36153729479
562,0.0
563,111624.41119751374
564,-7272.984304784996
565,-5354.390788713957
566,62004.71542033065
567,2407.8608988477619
568,5301.3167696074419
569,0.0
570,19585.216732699133
571,-5884.30399296243
572,0.0
573,27875.920303545478
574,5582.20952195392
575,267.2765305381814
576,0.0
577,93729.7887209147
578,0.0
579,42318.0736135805
580,-1012.2855478649777
581,-8393.347056293944
582,0.0
583,37183.63864739862
584,50427.56569313885
585,1861.7210777734816
586,0.0
587,18490.015521885278
588,4521.192784580278
589,3868.4387438180449
590,0.0
591,141174.05941286099
592,35850.30695976352
593,951.229444865936
594,0.0
595,-267498.01483820707
596,18148.48891954504
597,-24496.390453952703
598,0.0
599,10842.94995351797
600,262270.9914955208
601,38108.9676860246
602,32046.368263059194
603,-4454.459892292282
604,0.0
605,141094.8223122056
606,-5161.148234133784
607,22811.855499754794
608,3222.423940899428
609,0.0
610,24535.18049439872
611,28859.867777163767
612,34731.97318456081
613,3775.302141606717
614,0.0
615,28543.041970622042
616,0.0
617,310070.78984720548
618,127371.609824781
619,13316.647962081859
620,0.0
621,-233847.46627332265
622,-23914.849446383803
623,-27860.51927218005
624,5976.970833367128
625,199106.60649530265
626,30626.652472522255
627,0.0
628,-164987.9149335985
629,0.0
630,84665.30747042771
631,-4740.778391331237
632,30972.870405682716
633,138951.37699392474
634,18222.2136891022
635,0.0
636,-209692.55393091168
637,3797.8805835977866
638,-30912.09917548851
639,-8703.948087396533
640,183278.32252084113
641,28588.910882101132
642,5458.156625563094
643,0.0
644,82012.3204829352
645,-7577.355542412543
646,2987.232775843079
647,33879.22887929899
648,3440.032793433812
649,359213.9096804626
650,0.0
651,58474.32225789802
652,0.0
653,311455.55121619187
654,0.0
655,218820.36768847265
656,0.0
657,301403.7950565043
658,0.0
659,136288.48947021116
660,0.0
661,462798.4607765049
662,0.0
663,135815.72554662496
664,0.0
665,243874.55662704243
666,0.0
667,121561.68261843984
668,0.0
669,122803.35178844468
670,0.0
1308,1702093.457313551
1357,0.0
1406,1128523.9701614937
1407,0.0
1408,258075.59725729607
1409,0.0
1410,193209.84121614736
1411,0.0
1412,1383475.888510293
1413,0.0
1414,950681.3714545871
1415,0.0
1416,874399.5605063551
1417,0.0
1418,680065.2522170567
1419,0.0
1420,850996.1863396221
1421,0.0
1422,352071.4578026167
1423,0.0
1424,718865.4093773131
1425,0.0
1426,345306.9376493755
1427,0.0
1428,2106460.269796648
1429,0.0
1430,1152561.1713899037
1431,0.0
1432,414306.1302536013
1433,0.0
1434,75176.32373954043
1435,82652.72204284494
1436,746060.1053692215
1437,0.0
1438,430518.1550441226
1439,0.0
1440,348179.3263723728
1441,0.0
1442,67251.04811106666
1443,96587.60931078278
1444,608647.6041429263
1445,0.0
1446,336127.0667875075
1447,0.0
2,1, 1, 1, 0, 3, 0.00,60.00,Sunday
7,0.0
8,0.0
9,0.0
10,0.0
11,0.0
12,0.0
13,0.0
14,0.0
15,0.0
16,0.0
17,0.0
508,0.0
509,0.0
510,0.0
511,0.0
512,0.0
513,0.0
514,0.0
515,0.0
516,0.0
517,0.0
518,0.0
519,0.0
520,418056.2598763623
521,0.0
522,161815.04462217674
523,0.0
524,47399.69206733409
525,0.0
526,44450.75758805172
527,0.0
528,290466.00415114188
529,0.0
530,136265.8035733019
531,0.0
532,54435.036298285035
533,0.0
534,136941.03021892059
535,0.0
536,196424.39704341876
537,0.0
538,276020.3652367143
539,0.0
540,241580.91222252517
541,0.0
542,221234.1806712905
543,0.0
544,251414.0927990056
545,0.0
546,44592.95311173649
547,0.0
548,468080.87920537628
549,0.0
550,244051.01279822977
551,0.0
552,168839.9178072204
553,0.0
554,237274.9754941833
555,0.0
556,218993.40920716784
557,0.0
558,207466.38401902357
559,4809.344358038919
560,0.0
561,-32062.517774245964
562,0.0
563,27364.998823434693
564,-5230.5113508158669
565,-1206.1050045402186
566,56263.24895726684
567,3097.3715236858308
568,6365.161643264364
569,0.0
570,-3828.0415080945037
571,-4360.139330087295
572,0.0
573,4999.860383264917
574,4766.7348550800329
575,199.6890154715607
576,0.0
577,-50591.830319843415
578,0.0
579,-25722.76666859162
580,3277.53014180678
581,-6085.94472298761
582,0.0
583,8611.475428581249
584,45798.36883268855
585,2471.3105647446457
586,0.0
587,-46970.05341017802
588,7138.65744452169
589,6134.2402208092
590,0.0
591,35572.2924413836
592,31850.848376899758
593,1230.4010868922104
594,0.0
595,-370280.479417961
596,20940.326442073587
597,-17917.678270001892
598,0.0
599,-97148.20292180217
600,235987.37709917176
601,35120.77873639465
602,30733.223002941977
603,-3009.0069310543369
604,0.0
605,28743.145525454554
606,-3849.5639883864589
607,21838.644194568737
608,3125.7387217815669
609,0.0
610,-93476.55593973107
611,28505.09230316375
612,34523.62224044439
613,6156.59131180584
614,0.0
615,5601.726666894884
616,0.0
617,71475.67406193378
618,120379.62103533182
619,13784.374160773043
620,0.0
621,-322999.5233270584
622,-21523.54014320779
623,-23702.528528697472
624,7077.980132907637
625,177494.29811102313
626,27145.76314683154
627,0.0
628,-229053.69519791578