Program Version,EnergyPlus, Version 9.3.0-baff08990c, YMD=2021.04.24 21:16
1,5,Environment Title[],Latitude[deg],Longitude[deg],Time Zone[],Elevation[m]
2,8,Day of Simulation[],Month[],Day of Month[],DST Indicator[1=yes 0=no],Hour[],StartMinute[],EndMinute[],DayType
3,5,Cumulative Day of Simulation[],Month[],Day of Month[],DST Indicator[1=yes 0=no],DayType  ! When Daily Report Variables Requested
4,2,Cumulative Days of Simulation[],Month[]  ! When Monthly Report Variables Requested
5,1,Cumulative Days of Simulation[] ! When Run Period Report Variables Requested
6,1,Calendar Year of Simulation[] ! When Annual Report Variables Requested
7,1,ROOM_184271FF,Zone People Total Heating Energy [J] !Hourly
8,1,ROOM_2268FC85,Zone People Total Heating Energy [J] !Hourly
9,1,ROOM_565DB822,Zone People Total Heating Energy [J] !Hourly
10,1,ROOM_D27F8739,Zone People Total Heating Energy [J] !Hourly
11,1,ROOM_DF3CB535,Zone People Total Heating Energy [J] !Hourly
274,1,ROOM_184271FF,Zone Windows Total Transmitted Solar Radiation Energy [J] !Hourly
275,1,ROOM_2268FC85,Zone Windows Total Transmitted Solar Radiation Energy [J] !Hourly
276,1,ROOM_565DB822,Zone Windows Total Transmitted Solar Radiation Energy [J] !Hourly
277,1,ROOM_D27F8739,Zone Windows Total Transmitted Solar Radiation Energy [J] !Hourly
278,1,ROOM_DF3CB535,Zone Windows Total Transmitted Solar Radiation Energy [J] !Hourly
279,1,ROOM_184271FF..FACE1_GLZ1,Surface Window Heat Gain Energy [J] !Hourly
280,1,ROOM_184271FF..FACE1_GLZ1,Surface Window Heat Loss Energy [J] !Hourly
281,1,ROOM_184271FF..FACE2_GLZ1,Surface Window Heat Gain Energy [J] !Hourly
282,1,ROOM_184271FF..FACE2_GLZ1,Surface Window Heat Loss Energy [J] !Hourly
283,1,ROOM_2268FC85..FACE1_GLZ1,Surface Window Heat Gain Energy [J] !Hourly
284,1,ROOM_2268FC85..FACE1_GLZ1,Surface Window Heat Loss Energy [J] !Hourly
285,1,ROOM_2268FC85..FACE2_GLZ1,Surface Window Heat Gain Energy [J] !Hourly
286,1,ROOM_2268FC85..FACE2_GLZ1,Surface Window Heat Loss Energy [J] !Hourly
287,1,ROOM_565DB822..FACE4_GLZ1,Surface Window Heat Gain Energy [J] !Hourly
288,1,ROOM_565DB822..FACE4_GLZ1,Surface Window Heat Loss Energy [J] !Hourly
289,1,ROOM_565DB822..FACE5_GLZ1,Surface Window Heat Gain Energy [J] !Hourly
290,1,ROOM_565DB822..FACE5_GLZ1,Surface Window Heat Loss Energy [J] !Hourly
291,1,ROOM_D27F8739..FACE3_GLZ1,Surface Window Heat Gain Energy [J] !Hourly
292,1,ROOM_D27F8739..FACE3_GLZ1,Surface Window Heat Loss Energy [J] !Hourly
293,1,ROOM_D27F8739..FACE4_GLZ1,Surface Window Heat Gain Energy [J] !Hourly
294,1,ROOM_D27F8739..FACE4_GLZ1,Surface Window Heat Loss Energy [J] !Hourly
295,1,ROOM_DF3CB535..FACE2_GLZ1,Surface Window Heat Gain Energy [J] !Hourly
296,1,ROOM_DF3CB535..FACE2_GLZ1,Surface Window Heat Loss Energy [J] !Hourly
297,1,ROOM_DF3CB535..FACE3_GLZ1,Surface Window Heat Gain Energy [J] !Hourly
298,1,ROOM_DF3CB535..FACE3_GLZ1,Surface Window Heat Loss Energy [J] !Hourly
299,1,ROOM_184271FF..FACE1,Surface Outside Face Solar Radiation Heat Gain Energy [J] !Hourly
300,1,ROOM_184271FF..FACE1,Surface Average Face Conduction Heat Transfer Energy [J] !Hourly
301,1,ROOM_184271FF..FACE2,Surface Outside Face Solar Radiation Heat Gain Energy [J] !Hourly
302,1,ROOM_184271FF..FACE2,Surface Average Face Conduction Heat Transfer Energy [J] !Hourly
303,1,ROOM_184271FF..FACE3,Surface Average Face Conduction Heat Transfer Energy [J] !Hourly
304,1,ROOM_184271FF..FACE4,Surface Average Face Conduction Heat Transfer Energy [J] !Hourly
305,1,ROOM_184271FF..FACE0,Surface Average Face Conduction Heat Transfer Energy [J] !Hourly
306,1,ROOM_184271FF..FACE5,Surface Average Face Conduction Heat Transfer Energy [J] !Hourly
307,1,ROOM_2268FC85..FACE1,Surface Outside Face Solar Radiation Heat Gain Energy [J] !Hourly
308,1,ROOM_2268FC85..FACE1,Surface Average Face Conduction Heat Transfer Energy [J] !Hourly
309,1,ROOM_2268FC85..FACE2,Surface Outside Face Solar Radiation Heat Gain Energy [J] !Hourly
310,1,ROOM_2268FC85..FACE2,Surface Average Face Conduction Heat Transfer Energy [J] !Hourly
311,1,ROOM_2268FC85..FACE3,Surface Average Face Conduction Heat Transfer Energy [J] !Hourly
312,1,ROOM_2268FC85..FACE4,Surface Average Face Conduction Heat Transfer Energy [J] !Hourly
313,1,ROOM_2268FC85..FACE0,Surface Average Face Conduction Heat Transfer Energy [J] !Hourly
314,1,ROOM_2268FC85..FACE5,Surface Average Face Conduction Heat Transfer Energy [J] !Hourly
315,1,ROOM_565DB822..FACE1,Surface Average Face Conduction Heat Transfer Energy [J] !Hourly
316,1,ROOM_565DB822..FACE2,Surface Average Face Conduction Heat Transfer Energy [J] !Hourly
317,1,ROOM_565DB822..FACE3,Surface Average Face Conduction Heat Transfer Energy [J] !Hourly
318,1,ROOM_565DB822..FACE4,Surface Outside Face Solar Radiation Heat Gain Energy [J] !Hourly
319,1,ROOM_565DB822..FACE4,Surface Average Face Conduction Heat Transfer Energy [J] !Hourly
320,1,ROOM_565DB822..FACE5,Surface Outside Face Solar Radiation Heat Gain Energy [J] !Hourly
321,1,ROOM_565DB822..FACE5,Surface Average Face Conduction Heat Transfer Energy [J] !Hourly
322,1,ROOM_565DB822..FACE0,Surface Average Face Conduction Heat Transfer Energy [J] !Hourly
323,1,ROOM_565DB822..FACE6,Surface Average Face Conduction Heat Transfer Energy [J] !Hourly
324,1,ROOM_D27F8739..FACE1,Surface Average Face Conduction Heat Transfer Energy [J] !Hourly
325,1,ROOM_D27F8739..FACE2,Surface Average Face Conduction Heat Transfer Energy [J] !Hourly
326,1,ROOM_D27F8739..FACE3,Surface Outside Face Solar Radiation Heat Gain Energy [J] !Hourly
327,1,ROOM_D27F8739..FACE3,Surface Average Face Conduction Heat Transfer Energy [J] !Hourly
328,1,ROOM_D27F8739..FACE4,Surface Outside Face Solar Radiation Heat Gain Energy [J] !Hourly
329,1,ROOM_D27F8739..FACE4,Surface Average Face Conduction Heat Transfer Energy [J] !Hourly
330,1,ROOM_D27F8739..FACE0,Surface Average Face Conduction Heat Transfer Energy [J] !Hourly
331,1,ROOM_D27F8739..FACE5,Surface Average Face Conduction Heat Transfer Energy [J] !Hourly
332,1,ROOM_DF3CB535..FACE1,Surface Average Face Conduction Heat Transfer Energy [J] !Hourly
333,1,ROOM_DF3CB535..FACE2,Surface Outside Face Solar Radiation Heat Gain Energy [J] !Hourly
334,1,ROOM_DF3CB535..FACE2,Surface Average Face Conduction Heat Transfer Energy [J] !Hourly
335,1,ROOM_DF3CB535..FACE3,Surface Outside Face Solar Radiation Heat Gain Energy [J] !Hourly
336,1,ROOM_DF3CB535..FACE3,Surface Average Face Conduction Heat Transfer Energy [J] !Hourly
337,1,ROOM_DF3CB535..FACE4,Surface Average Face Conduction Heat Transfer Energy [J] !Hourly
338,1,ROOM_DF3CB535..FACE5,Surface Average Face Conduction Heat Transfer Energy [J] !Hourly
339,1,ROOM_DF3CB535..FACE0,Surface Average Face Conduction Heat Transfer Energy [J] !Hourly
340,1,ROOM_DF3CB535..FACE6,Surface Average Face Conduction Heat Transfer Energy [J] !Hourly
341,1,ROOM_184271FF,Zone Infiltration Total Heat Loss Energy [J] !Hourly
342,1,ROOM_184271FF,Zone Infiltration Total Heat Gain Energy [J] !Hourly
343,1,ROOM_2268FC85,Zone Infiltration Total Heat Loss Energy [J] !Hourly
344,1,ROOM_2268FC85,Zone Infiltration Total Heat Gain Energy [J] !Hourly
345,1,ROOM_565DB822,Zone Infiltration Total Heat Loss Energy [J] !Hourly
346,1,ROOM_565DB822,Zone Infiltration Total Heat Gain Energy [J] !Hourly
347,1,ROOM_D27F8739,Zone Infiltration Total Heat Loss Energy [J] !Hourly
348,1,ROOM_D27F8739,Zone Infiltration Total Heat Gain Energy [J] !Hourly
349,1,ROOM_DF3CB535,Zone Infiltration Total Heat Loss Energy [J] !Hourly
350,1,ROOM_DF3CB535,Zone Infiltration Total Heat Gain Energy [J] !Hourly
760,1,ROOM_184271FF IDEAL LOADS AIR SYSTEM,Zone Ideal Loads Supply Air Total Heating Energy [J] !Hourly
809,1,ROOM_184271FF IDEAL LOADS AIR SYSTEM,Zone Ideal Loads Supply Air Total Cooling Energy [J] !Hourly
858,1,ROOM_184271FF IDEAL LOADS AIR SYSTEM,Zone Ideal Loads Zone Total Heating Energy [J] !Hourly
859,1,ROOM_184271FF IDEAL LOADS AIR SYSTEM,Zone Ideal Loads Zone Total Cooling Energy [J] !Hourly
860,1,ROOM_2268FC85 IDEAL LOADS AIR SYSTEM,Zone Ideal Loads Supply Air Total Heating Energy [J] !Hourly
861,1,ROOM_2268FC85 IDEAL LOADS AIR SYSTEM,Zone Ideal Loads Supply Air Total Cooling Energy [J] !Hourly
862,1,ROOM_2268FC85 IDEAL LOADS AIR SYSTEM,Zone Ideal Loads Zone Total Heating Energy [J] !Hourly
863,1,ROOM_2268FC85 IDEAL LOADS AIR SYSTEM,Zone Ideal Loads Zone Total Cooling Energy [J] !Hourly
864,1,ROOM_565DB822 IDEAL LOADS AIR SYSTEM,Zone Ideal Loads Supply Air Total Heating Energy [J] !Hourly
865,1,ROOM_565DB822 IDEAL LOADS AIR SYSTEM,Zone Ideal Loads Supply Air Total Cooling Energy [J] !Hourly
866,1,ROOM_565DB822 IDEAL LOADS AIR SYSTEM,Zone Ideal Loads Zone Total Heating Energy [J] !Hourly
867,1,ROOM_565DB822 IDEAL LOADS AIR SYSTEM,Zone Ideal Loads Zone Total Cooling Energy [J] !Hourly
868,1,ROOM_D27F8739 IDEAL LOADS AIR SYSTEM,Zone Ideal Loads Supply Air Total Heating Energy [J] !Hourly
869,1,ROOM_D27F8739 IDEAL LOADS AIR SYSTEM,Zone Ideal Loads Supply Air Total Cooling Energy [J] !Hourly
870,1,ROOM_D27F8739 IDEAL LOADS AIR SYSTEM,Zone Ideal Loads Zone Total Heating Energy [J] !Hourly
871,1,ROOM_D27F8739 IDEAL LOADS AIR SYSTEM,Zone Ideal Loads Zone Total Cooling Energy [J] !Hourly
872,1,ROOM_DF3CB535 IDEAL LOADS AIR SYSTEM,Zone Ideal Loads Supply Air Total Heating Energy [J] !Hourly
873,1,ROOM_DF3CB535 IDEAL LOADS AIR SYSTEM,Zone Ideal Loads Supply Air Total Cooling Energy [J] !Hourly
874,1,ROOM_DF3CB535 IDEAL LOADS AIR SYSTEM,Zone Ideal Loads Zone Total Heating Energy [J] !Hourly
875,1,ROOM_DF3CB535 IDEAL LOADS AIR SYSTEM,Zone Ideal Loads Zone Total Cooling Energy [J] !Hourly
End of Data Dictionary
1,RUN PERIOD 1,  42.37, -71.02,  -5.00,   6.00
2,1, 1, 1, 0, 1, 0.00,60.00,Sunday
7,0.0
8,0.0
9,0.0
10,0.0
11,0.0
274,0.0
275,0.0
276,0.0
277,0.0
278,0.0
279,0.0
280,200490.51416203488
281,0.0
282,362022.26722946626
283,0.0
284,367411.48600113907
285,0.0
286,256602.1289497593
287,0.0
288,90490.86994870097
289,0.0
290,112926.40785893442
291,0.0
292,151292.6366837194
293,0.0
294,112842.08273036113
295,0.0
296,226495.46422115039
297,0.0
298,194397.6985130423
299,0.0
300,-378481.7735761425
301,0.0
302,-251352.30488579494
303,-15814.33680566277
304,19026.09561148005
305,172694.29550281476
306,25240.34225020023
307,0.0
308,-349048.82229345917
309,0.0
310,-478781.06762684349
311,-9764.152003684649
312,-15070.488962571939
313,264994.4610678273
314,42008.3646040964
315,19430.430914885957
316,-6397.2921907179029
317,-17052.74059200046
318,0.0
319,-40672.37588263092
320,0.0
321,-106411.91267850623
322,36412.67326395965
323,4841.023421140215
324,14869.309310440864
325,2261.3784078546166
326,0.0
327,-67720.08970924506
328,0.0
329,-68018.1824824995
330,12360.451947240961
331,841.8738408865295
332,15241.090020010972
333,0.0
334,-155116.2650215583
335,0.0
336,-87108.69446119623
337,-5561.950122956931
338,5354.303188043993
339,44069.71643925015
340,4309.506136626371
341,350973.72610086118
342,0.0
343,382913.0511960762
344,0.0
345,129682.30112116672
346,0.0
347,175923.6710926355
348,0.0
349,272436.43828002389
350,0.0
760,1146550.90235117
809,0.0
858,675606.7153804739
859,0.0
860,1161078.1652254323
861,0.0
862,568582.5392083223
863,0.0
864,523815.87586245519
865,0.0
866,337140.21084138206
867,0.0
868,653883.12464735
869,0.0
870,528912.5805875383
871,0.0
872,1074531.139316453
873,0.0
874,768468.9119232807
875,0.0
2,1, 1, 1, 0, 2, 0.00,60.00,Sunday
7,0.0
8,0.0
9,0.0
10,0.0
11,0.0
274,0.0
275,0.0
276,0.0
277,0.0
278,0.0
279,0.0
280,156047.04128706139
281,0.0
282,281871.5714734398
283,0.0
284,286384.6743859339
285,0.0
286,200122.3305834757
287,0.0
288,70538.55077942887
289,0.0
290,87806.44115330602
291,0.0
292,116736.27166054672
293,0.0
294,87587.24712839599
295,0.0
296,175395.93222273823
297,0.0
298,150437.01994156544
299,0.0
300,-155623.01965111885
301,0.0
302,107238.47709130083
303,-14754.77882584658
304,15735.94489999999
305,142286.74320672576
306,17680.835114671907
307,0.0
308,17305.629139359145
309,0.0
310,-198312.21922055927
311,-10105.157609796888
312,-14357.830755000967
313,221780.4003329745
314,31808.143735236077
315,16307.931821304463
316,-6186.170343709976
317,-16010.23774768013
318,0.0
319,47351.1427808239
320,0.0
321,8776.20428279852
322,29049.11930908278
323,2906.0995298530845
324,13182.322722471075
325,1931.2990541044449
326,0.0
327,85414.07454632041
328,0.0
329,47077.2775669514
330,6758.217866719399
331,-422.4133687150194
332,13366.838288994626
333,0.0
334,77457.84957513178
335,0.0
336,106638.51679996046
337,-5105.6495460285309
338,4685.874831290917
339,30375.939157930865
340,1270.5765280883925
341,270713.72055482168
342,0.0
343,293982.0830604784
344,0.0
345,99795.12977008989
346,0.0
347,138224.3031656341
348,0.0
349,211437.3317292389
350,0.0
760,933425.5871158338
809,0.0
858,565049.0156613791
859,0.0
860,931223.2981785123
861,0.0
862,470178.23746304979
863,0.0
864,434256.72609088869
865,0.0
866,288618.73130293076
867,0.0
868,548315.5731384119
869,0.0
870,448428.7158422009
871,0.0
872,893498.427313932
873,0.0
874,652422.9651620757
875,0.0
2,1, 1, 1, 0, 3, 0.00,60.00,Sunday
7,0.0
8,0.0
9,0.0
10,0.0
11,0.0
274,0.0
275,0.0
276,0.0
277,0.0
278,0.0
279,0.0
280,159417.58213888005
281,0.0
282,287912.53731062015
283,0.0
284,292024.3902204154
285,0.0
286,204056.20785623106
287,0.0
288,72325.60231317021
289,0.0
290,89993.2659272773
291,0.0
292,119961.10959003365
293,0.0
294,90024.31424885954
295,0.0
296,179955.48223730442
297,0.0
298,154361.98956315436
299,0.0
300,-216825.9069953634
301,0.0
302,-31944.708624453735
303,-11192.698672541683
304,18282.188964242145
305,129468.30696573654
306,15746.667950475356
307,0.0
308,-115404.04781704898
309,0.0
310,-275642.2207525823
311,-5452.79933387157
312,-10055.071063450523
313,199456.11107959844
314,28305.387727612862
315,16320.562799918667
316,-4990.44765437862
317,-13993.086034815948
318,0.0
319,10236.8058757848
320,0.0
321,-33240.62136826865
322,25968.670272695377
323,2495.5435495653166
324,14684.536979950906
325,3475.827881962208
326,0.0
327,21949.112300189703
328,0.0
329,1074.188367074701
330,6005.351300681277
331,-193.77397321530487
332,14490.587179070088
333,0.0
334,-12975.697203533371
335,0.0
336,26285.931696291605
337,-3231.0339404642525
338,5820.001109531467
339,27405.642266962175
340,1501.3851491748065
341,299312.3173335617
342,0.0
343,325700.9281582915
344,0.0
345,110453.73501817489
346,0.0
347,151151.41057296805
348,0.0
349,233080.8650489199
350,0.0
760,988335.2097656613
809,0.0
858,574322.3462444602
859,0.0
860,1011125.7263442983
861,0.0
862,492149.03734128669
863,0.0
864,448397.1479303118
865,0.0
866,284582.03704066367
867,0.0
868,556028.2154185328
869,0.0
870,444827.9748795216
871,0.0
872,914257.5000321582
873,0.0
874,643954.6972816428
875,0.0
2,1, 1, 1, 0, 4, 0.00,60.00,Sunday
7,0.0
8,0.0
9,0.0
10,0.0
11,0.0
274,0.0
275,0.0
276,0.0
277,0.0
278,0.0
279,0.0
280,161113.07378380793
281,0.0
282,290813.8559759441
283,0.0
284,294676.37147659677
285,0.0
286,205924.82613934278
287,0.0
288,73287.20497981267
289,0.0
290,91219.67527684143
291,0.0
292,121799.87579397927
293,0.0
294,91427.53523894807
295,0.0
296,182505.66781808376
297,0.0
298,156562.7125497393
299,0.0
300,-237702.47243105345
301,0.0
302,-101815.76616308568
303,-9675.359667438594
304,17653.233817496002
305,119963.99623441606
306,14403.168918779244
307,0.0
308,-177759.12306968543
309,0.0
310,-302031.61166794368
311,-4418.679711260868
312,-8003.427193984557
313,180819.66174639303
314,25341.847115949022
315,14814.550156420499
316,-4633.708176384317
317,-13231.188191389629
318,0.0
319,-9195.455692015152
320,0.0
321,-53001.606056133656
322,23758.885134736163
323,2345.396905421025
324,14770.109019541052
325,3680.7332351301076
326,0.0
327,-11689.65294545137
328,0.0
329,-22335.03982730356
330,5670.797715654669
331,65.93839355758719
332,13743.534799107496
333,0.0
334,-58728.33191237468
335,0.0
336,-16281.27484231098
337,-2761.794305964574
338,5977.891323557572
339,25358.684507324255
340,1818.9962385781992
341,311910.54116843317
342,0.0
343,340110.5868169938
344,0.0
345,115222.32032430997
346,0.0
347,156173.4418912093
348,0.0
349,242224.4814351385
350,0.0
760,1036965.0083662227
809,0.0
858,603481.923026814
859,0.0
860,1083766.6129421914
861,0.0
862,539180.0351532416
863,0.0
864,463659.0799116258
865,0.0
866,291948.41126542867
867,0.0
868,565738.237416716
869,0.0
870,450406.62743413707
871,0.0
872,936024.43153442
873,0.0
874,653854.0546464068
875,0.0
2,1, 1, 1, 0, 5, 0.00,60.00,Sunday
7,0.0
8,0.0
9,0.0
10,0.0
11,0.0
274,0.0
275,0.0
276,0.0
277,0.0
278,0.0
279,0.0
280,160317.74733958717
281,0.0
282,289230.44848444007
283,0.0
284,292901.3527096075
285,0.0
286,204706.32414641197
287,0.0
288,73027.96397153556
289,0.0
290,90969.73059916267
291,0.0
292,121569.62518074298
293,0.0
294,91274.82381285657
295,0.0
296,182049.8421806071
297,0.0
298,156168.5964902357
299,0.0
300,-233320.92164200854
301,0.0
302,-124248.85519939798
303,-8900.875933948018
304,16110.108646949504
305,109792.11305113278
306,12934.174727049856
307,0.0
308,-193245.58058250318
309,0.0
310,-296501.18679578337
311,-4536.083164089366
312,-6888.13393850252
313,163781.8995592773
314,22353.615414745273
315,12928.239843107525
316,-4571.665362245081
317,-12916.194770870303
318,0.0
319,-16363.550895254495
320,0.0
321,-58018.384015874195
322,21603.70049644
323,2164.270402619254
324,14318.206583374948
325,3485.735226078072
326,0.0
327,-24471.355643531904
328,0.0
329,-30226.84377654778
330,5137.588402137501
331,182.10876983391456
332,12486.775072326715
333,0.0
334,-73695.43853587426
335,0.0
336,-32413.665661471896
337,-2704.3000146404426
338,5786.605647988695
339,22964.578569820234
340,1860.3494940274982
341,316965.62094500279
342,0.0
343,346081.71575576186
344,0.0
345,117166.86744988688
346,0.0
347,157944.62917501623
348,0.0
349,245739.34793718483
350,0.0
760,1067413.5781440272
809,0.0
858,627985.4642009373
859,2586.1267215443206
860,1130295.2777437925
861,0.0
862,577065.0534427289
863,2862.8731418661348
864,472301.8874847784
865,0.0
866,298051.1546327837
867,962.8641161903346
868,568600.5570533807
869,0.0
870,452544.4965356743
871,937.2665243999478
872,944786.9949339128
873,0.0
874,659530.9174743602
875,1951.284748475149
2,1, 1, 1, 0, 6, 0.00,60.00,Sunday
7,0.0
8,0.0
9,0.0
10,0.0
11,0.0
274,0.0
275,0.0
276,0.0
277,0.0
278,0.0
279,0.0
280,160135.9168008511
281,0.0
282,289184.28946393649
283,0.0
284,292349.27929104687
285,0.0
286,204297.57044967605
287,0.0
288,73212.7255832904
289,0.0
290,91060.92495022691
291,0.0
292,121913.49778954029
293,0.0
294,91499.94922898562
295,0.0
296,182480.4001872416
297,0.0
298,156534.80623985039
299,0.0
300,-229417.24813734529
301,0.0
302,-131819.63097472568
303,-8214.078560857475
304,14781.017528869957
305,99974.30658581815
306,11553.014242836336
307,0.0
308,-198966.0795879768
309,0.0
310,-291583.97767835637
311,-4575.044719272992
312,-5894.340820870499
313,149722.79063190436
314,19704.636037919467
315,11257.114120017217
316,-4524.661019660729
317,-12651.281792468453
318,0.0
319,-19331.10520358862
320,0.0
321,-59884.79317794953
322,19601.07732315103
323,1977.7634548168554
324,13895.79386858811
325,3321.3972585573867
326,0.0
327,-28924.92910276846
328,0.0
329,-33905.648542497955
330,4633.900322492384
331,240.0607979237917
332,11380.710487312215
333,0.0
334,-78670.2782743364
335,0.0
336,-38055.43025580848
337,-2639.061357038235
338,5608.322613024705
339,20748.957938335014
340,1810.9946406234327
341,317358.65529467086
342,0.0
343,346797.6008562806
344,0.0
345,117359.83268982716
346,0.0
347,157723.35188890427
348,0.0
349,245799.1738064263
350,0.0
760,1095969.318094635
809,0.0
858,656302.7413037224
859,3135.9850337066179
860,1168552.9235845528
861,0.0
862,614793.6626306326
863,3857.34883016093
864,480256.5488707347
865,0.0
866,305885.5222506033
867,1237.6207708920134
868,571151.4987107704
869,0.0
870,455102.54571047946
871,778.7916852412593
872,952770.6351628064
873,0.0
874,667443.3552610624
875,2056.5377995880965
2,1, 1, 1, 0, 7, 0.00,60.00,Sunday
7,19295.763059916004
8,24302.245371516
9,7652.8102295160019
10,5093.3470763159989
11,12523.032440316
274,0.0
275,0.0
276,0.0
277,0.0
278,0.0
279,0.0
280,163032.9759692463
281,0.0
282,294848.19399607248
283,0.0
284,297829.34084869516
285,0.0
286,207751.65235269833
287,0.0
288,74941.89253519969
289,0.0
290,93085.588585192
291,0.0
292,124783.79247104386
293,0.0
294,93788.97363406647
295,0.0
296,186560.97872065617
297,0.0
298,160032.30630276499
299,0.0
300,-245410.3770286347
301,0.0
302,-173250.90522189899
303,-8033.97184853864
304,12901.886034427112
305,89083.43798051097
306,9702.239583918721
307,0.0
308,-238267.82614529728
309,0.0
310,-311763.82060446488
311,-5403.907070042501
312,-5634.003924432487
313,135054.14969128418
314,16568.223285055567
315,9441.64349350404
316,-4658.0378156005649
317,-12715.477533354164
318,0.0
319,-31120.16410666844
320,0.0
321,-72194.8678031818
322,17258.318209789006
323,1610.4576686827628
324,13451.77256307103
325,3123.7785458255036
326,0.0
327,-47801.76482954433
328,0.0
329,-48169.87896252193
330,4007.347992261407
331,206.8521110292399
332,10101.743149878503
333,0.0
334,-105486.3075267463
335,0.0
336,-62057.02494582687
337,-2786.8786054935737
338,5262.462245541701
339,17868.314717570618
340,1411.3012888115798
341,323081.8264446628
342,0.0
343,353105.99081663726
344,0.0
345,119484.54581098857
346,0.0
347,160555.4627272206
348,0.0
349,250204.70165602884
350,0.0
760,1110106.5380523818
809,0.0
858,661550.1281775732
859,849.3480211915255
860,1184859.6636600747
861,0.0
862,619917.0450060931
863,1119.4788019355599
864,482360.1172231687
865,0.0
866,304461.10905464077
867,347.3902692896871
868,572710.0402287754
869,0.0
870,454307.9956012809
871,133.7641494469409
872,953226.1670613965
873,0.0
874,662114.4995457736
875,499.05877115608066
2,1, 1, 1, 0, 8, 0.00,60.00,Sunday
7,19295.763059916004
8,24302.245371516
9,7652.8102295160019
10,5093.3470763159989
11,12523.032440316
274,156800.17036292499
275,104462.46233702835
276,21526.930993731337
277,29899.9337595405
278,92638.44420847163
279,0.0
280,102463.59012132736
281,6253.716751319116
282,171042.3970608981
283,0.0
284,251710.71369741459
285,0.0
286,131309.04772348543
287,0.0
288,65942.8465034751
289,0.0
290,78672.55293357642
291,0.0
292,104697.45732838931
293,0.0
294,81445.79122526384
295,4873.755838310686
296,107187.40683988718
297,0.0
298,134561.71930899303
299,231497.3148897934
300,-178403.07494861168
301,489483.22888105889
302,-47572.12945764733
303,-13798.319949385786
304,-113.49866733065483
305,41944.72683212191
306,2759.7775899850878
307,193775.99444941624
308,-211404.19496928663
309,291399.9574356359
310,-224921.38798843089
311,-11633.82179124059
312,-9521.713952329737
313,98129.42065950338
314,10329.77848600678
315,6067.949432524086
316,-5429.075747119177
317,-13594.124321429039
318,40225.11222768395
319,-28114.607177005517
320,61120.97710613664
321,-63127.228451401534
322,12481.759249606574
323,831.3160106145163
324,10341.991832599804
325,1111.583441168213
326,85626.17478244918
327,-38826.018346167555
328,54354.295433900676
329,-43408.610866698764
330,-127.10915023643065
331,-500.4338790508068
332,4083.986307431746
333,317937.7477062207
334,-23440.520246522086
335,108392.03894977813
336,-52185.741318564826
337,-6010.977191154914
338,1980.5978732951197
339,-3831.606893272652
340,-1698.8929326677492
341,331087.11484632387
342,0.0
343,361914.11863615209
344,0.0
345,122454.79598620563
346,0.0
347,164423.06331229333
348,0.0
349,256355.55968562055
350,0.0
760,1110055.6149921565
809,0.0
858,655307.505799986
859,5586.057447422036
860,1207247.5566895849
861,0.0
862,634487.4277157539
863,7132.672267946572
864,487690.83172773549
865,0.0
866,307342.15459636956
867,2241.917766239129
868,571853.0883057735
869,0.0
870,451827.318504886
871,1344.6457437708405
872,945237.146960915
873,0.0
874,650131.4002419375
875,3562.909862699172
2,1, 1, 1, 0, 9, 0.00,60.00,Sunday
7,19295.763059916004
8,24302.245371516
9,7652.8102295160019
10,5093.3470763159989
11,12523.032440316
274,1157854.130071605
275,698724.8516054219
276,82883.24451977624
277,115443.36480814728
278,567589.4021965533
279,373212.8414118771
280,0.0
281,628720.334975177
282,0.0
283,0.0
284,100383.09665921823
285,470158.5100458992
286,0.0
287,0.0
288,36016.15144194606
289,0.0
290,31099.636562645108
291,0.0
292,38335.740132012805
293,0.0
294,40601.695828233234
295,414529.25387042216
296,0.0
297,0.0
298,49951.80257164456
299,1925041.2166834935
300,391506.88887759266
301,3323248.4468842295
302,857609.6191222855
303,-43068.26841497998
304,-59271.01628780049
305,-272412.57877036047
306,-33573.367415639455
307,762529.0092926577
308,-70174.16985836788
309,2423898.8313643268
310,505047.1926917819
311,-34277.989315057755
312,-30669.98109860144
313,-94215.26348511923
314,-15451.31049970838
315,1928.7398064847676
316,-5838.20717019711
317,-15416.02722822862
318,153087.129497239
319,-1307.5284680620187
320,235583.65001910658
321,-16399.933973181087
322,332.8433393785758
323,-1643.2888981472395
324,3305.019086933549
325,-1669.8428566892722
326,332652.3219993439
327,19185.16318375469
328,207416.80221333594
329,-6533.581703323703
330,-12323.490245866074
331,-2798.552420246181
332,-13772.840623124273
333,2157763.9807921086
334,571828.4957893689
335,427886.04577903417
336,15240.83905984349
337,-18451.92600758715
338,-10748.719761010358
339,-136515.31921102678
340,-16526.215169011863
341,331506.7991358607
342,0.0
343,362476.8835056782
344,0.0
345,122627.48418059937
346,0.0
347,164446.4785452419
348,0.0
349,256586.17919465705
350,0.0
760,871199.1640736453
809,0.0
858,416468.7524473177
859,5551.338507139864
860,1074645.282090123
861,0.0
862,501928.0462025665
863,7299.166990872991
864,461617.29173981436
865,0.0
866,281283.84793827959
867,2266.1003661769229
868,533098.3850432757
869,0.0
870,413080.30987395779
871,1174.3424419854137
872,801350.7690664051
873,0.0
874,506255.72879778666
875,3412.2357441918186
2,1, 1, 1, 0,10, 0.00,60.00,Sunday
7,19295.763059916004
8,24302.245371516
9,7652.8102295160019
10,5093.3470763159989
11,12523.032440316
274,3083877.555366364
275,2027212.9657405616
276,138490.42942710166
277,191857.94162204886
278,1261457.0471040039
279,1557615.1890231325
280,0.0
281,1843705.2683220092
282,0.0
283,32899.24290536811
284,8215.369778449354
285,1970656.9868825244
286,0.0
287,0.0
288,15093.324357333076
289,11227.462284036055
290,2582.375577342203
291,16332.392080206379
292,2324.8600457577406
293,1578.0128228620136
294,11574.613627372948
295,1211240.5728290426
296,0.0
297,18342.678451348136
298,3131.48382209621
299,6146741.647743051
300,1515701.2886401928
301,7811862.697377231
302,1857461.141356682
303,-83681.17599741533
304,-137589.956505016
305,-835175.0606235947
306,-103030.63963474355
307,1336975.1381746475
308,-57066.87483488066
309,7740616.565615703
310,1934060.4384582015
311,-52014.08424512387
312,-72367.30388341107
313,-514307.51703165026
314,-70010.38166600568
315,10815.661139395967
316,-309.0043465395582
317,-16323.252199355242
318,247427.1807896948
319,-4753.172578801231
320,402820.4198899731
321,-7762.8435775394159
322,-13422.496143787532
323,-4796.4192309254699
324,-480.05346247316597
325,3771.3835932454937
326,549532.4742672017
327,21814.16746630988
328,335573.5395102563
329,-9024.134394261266
330,-23127.204947686696
331,-4793.578056665058
332,-19900.275145982745
333,5071358.316688069
334,1238995.0384397433
335,730590.1488900663
336,17260.231167338316
337,-33979.04453531145
338,-26852.793167983808
339,-335167.64824778898
340,-38786.85733213063
341,343792.1653958172
342,0.0
343,375981.5089731324
344,0.0
345,127183.95551981482
346,0.0
347,170383.35322711629
348,0.0
349,266030.37508023
350,0.0
760,194852.7664398927
809,0.0
858,5230.3965964999429
859,287100.210577247
860,687029.5198946374
861,0.0
862,106527.79419058716
863,20314.088960604102
864,424019.3630180523
865,0.0
866,239551.85203484025
867,4666.903247442889
868,492001.68103189239
869,0.0
870,369251.2382737602
871,2698.9308117450548
872,542077.4980441753
873,0.0
874,240167.82519990766
875,7209.831720834004
2,1, 1, 1, 0,11, 0.00,60.00,Sunday
7,19295.763059916004
8,24302.245371516
9,7652.8102295160019
10,5093.3470763159989
11,12523.032440316
274,2301399.013860062
275,2074969.210453541
276,200095.80139525538
277,273289.6699310171
278,848603.541102329
279,1483823.0535594687
280,0.0
281,936652.3436789614
282,0.0
283,178246.833955943
284,0.0
285,1876001.5070174009
286,0.0
287,16180.880800575778
288,0.0
289,59435.144098503944
290,0.0
291,78880.52568669454
292,0.0
293,33433.99139403668
294,0.0
295,625842.712486432
296,0.0
297,92960.61769587024
298,0.0
299,5905423.102139652
300,1184147.7939854705
301,4945420.812979641
302,653646.6965505127
303,-45958.79400768887
304,-62964.63461408968
305,-462060.82443536337
306,-82935.3293976509
307,1884576.7521710597
308,156764.07946560737
309,7436174.271699709
310,1487894.0889468047
311,-9432.77228658189
312,-69804.40505879342
313,-453969.8746649224
314,-79839.45853025439