Program Version,EnergyPlus, Version 9.3.0-baff08990c, YMD=2021.04.24 20:36
1,5,Environment Title[],Latitude[deg],Longitude[deg],Time Zone[],Elevation[m]
2,8,Day of Simulation[],Month[],Day of Month[],DST Indicator[1=yes 0=no],Hour[],StartMinute[],EndMinute[],DayType
3,5,Cumulative Day of Simulation[],Month[],Day of Month[],DST Indicator[1=yes 0=no],DayType  ! When Daily Report Variables Requested
4,2,Cumulative Days of Simulation[],Month[]  ! When Monthly Report Variables Requested
5,1,Cumulative Days of Simulation[] ! When Run Period Report Variables Requested
6,1,Calendar Year of Simulation[] ! When Annual Report Variables Requested
7,1,ROOM_1839CC8F,Zone People Total Heating Energy [J] !Hourly
8,1,ROOM_2E2D7779,Zone People Total Heating Energy [J] !Hourly
9,1,ROOM_2FA010A8,Zone People Total Heating Energy [J] !Hourly
10,1,ROOM_3CE88DE1,Zone People Total Heating Energy [J] !Hourly
11,1,ROOM_CD350907,Zone People Total Heating Energy [J] !Hourly
12,1,ROOM_DBDF577D,Zone People Total Heating Energy [J] !Hourly
13,1,ROOM_DE92ABD9,Zone People Total Heating Energy [J] !Hourly
14,1,ROOM_E5C673A0,Zone People Total Heating Energy [J] !Hourly
15,1,ROOM_EAF91A45,Zone People Total Heating Energy [J] !Hourly
16,1,ROOM_FA36241B,Zone People Total Heating Energy [J] !Hourly
17,1,ROOM_FD1BC703,Zone People Total Heating Energy [J] !Hourly
508,1,ROOM_1839CC8F,Zone Windows Total Transmitted Solar Radiation Energy [J] !Hourly
509,1,ROOM_2E2D7779,Zone Windows Total Transmitted Solar Radiation Energy [J] !Hourly
510,1,ROOM_2FA010A8,Zone Windows Total Transmitted Solar Radiation Energy [J] !Hourly
511,1,ROOM_3CE88DE1,Zone Windows Total Transmitted Solar Radiation Energy [J] !Hourly
512,1,ROOM_CD350907,Zone Windows Total Transmitted Solar Radiation Energy [J] !Hourly
513,1,ROOM_DBDF577D,Zone Windows Total Transmitted Solar Radiation Energy [J] !Hourly
514,1,ROOM_DE92ABD9,Zone Windows Total Transmitted Solar Radiation Energy [J] !Hourly
515,1,ROOM_E5C673A0,Zone Windows Total Transmitted Solar Radiation Energy [J] !Hourly
516,1,ROOM_EAF91A45,Zone Windows Total Transmitted Solar Radiation Energy [J] !Hourly
517,1,ROOM_FA36241B,Zone Windows Total Transmitted Solar Radiation Energy [J] !Hourly
518,1,ROOM_FD1BC703,Zone Windows Total Transmitted Solar Radiation Energy [J] !Hourly
519,1,ROOM_1839CC8F..FACE3_GLZ1,Surface Window Heat Gain Energy [J] !Hourly
520,1,ROOM_1839CC8F..FACE3_GLZ1,Surface Window Heat Loss Energy [J] !Hourly
521,1,ROOM_1839CC8F..FACE4_GLZ1,Surface Window Heat Gain Energy [J] !Hourly
522,1,ROOM_1839CC8F..FACE4_GLZ1,Surface Window Heat Loss Energy [J] !Hourly
523,1,ROOM_2E2D7779..FACE1_GLZ1,Surface Window Heat Gain Energy [J] !Hourly
524,1,ROOM_2E2D7779..FACE1_GLZ1,Surface Window Heat Loss Energy [J] !Hourly
525,1,ROOM_2E2D7779..FACE2_GLZ1,Surface Window Heat Gain Energy [J] !Hourly
526,1,ROOM_2E2D7779..FACE2_GLZ1,Surface Window Heat Loss Energy [J] !Hourly
527,1,ROOM_2E2D7779..FACE3_GLZ1,Surface Window Heat Gain Energy [J] !Hourly
528,1,ROOM_2E2D7779..FACE3_GLZ1,Surface Window Heat Loss Energy [J] !Hourly
529,1,ROOM_2FA010A8..FACE1_GLZ1,Surface Window Heat Gain Energy [J] !Hourly
530,1,ROOM_2FA010A8..FACE1_GLZ1,Surface Window Heat Loss Energy [J] !Hourly
531,1,ROOM_2FA010A8..FACE5_GLZ1,Surface Window Heat Gain Energy [J] !Hourly
532,1,ROOM_2FA010A8..FACE5_GLZ1,Surface Window Heat Loss Energy [J] !Hourly
533,1,ROOM_3CE88DE1..FACE1_GLZ1,Surface Window Heat Gain Energy [J] !Hourly
534,1,ROOM_3CE88DE1..FACE1_GLZ1,Surface Window Heat Loss Energy [J] !Hourly
535,1,ROOM_3CE88DE1..FACE3_GLZ1,Surface Window Heat Gain Energy [J] !Hourly
536,1,ROOM_3CE88DE1..FACE3_GLZ1,Surface Window Heat Loss Energy [J] !Hourly
537,1,ROOM_3CE88DE1..FACE4_GLZ1,Surface Window Heat Gain Energy [J] !Hourly
538,1,ROOM_3CE88DE1..FACE4_GLZ1,Surface Window Heat Loss Energy [J] !Hourly
539,1,ROOM_CD350907..FACE1_GLZ1,Surface Window Heat Gain Energy [J] !Hourly
540,1,ROOM_CD350907..FACE1_GLZ1,Surface Window Heat Loss Energy [J] !Hourly
541,1,ROOM_CD350907..FACE2_GLZ1,Surface Window Heat Gain Energy [J] !Hourly
542,1,ROOM_CD350907..FACE2_GLZ1,Surface Window Heat Loss Energy [J] !Hourly
543,1,ROOM_CD350907..FACE3_GLZ1,Surface Window Heat Gain Energy [J] !Hourly
544,1,ROOM_CD350907..FACE3_GLZ1,Surface Window Heat Loss Energy [J] !Hourly
545,1,ROOM_DBDF577D..FACE3_GLZ1,Surface Window Heat Gain Energy [J] !Hourly
546,1,ROOM_DBDF577D..FACE3_GLZ1,Surface Window Heat Loss Energy [J] !Hourly
547,1,ROOM_DBDF577D..FACE5_GLZ1,Surface Window Heat Gain Energy [J] !Hourly
548,1,ROOM_DBDF577D..FACE5_GLZ1,Surface Window Heat Loss Energy [J] !Hourly
549,1,ROOM_DE92ABD9..FACE3_GLZ1,Surface Window Heat Gain Energy [J] !Hourly
550,1,ROOM_DE92ABD9..FACE3_GLZ1,Surface Window Heat Loss Energy [J] !Hourly
551,1,ROOM_DE92ABD9..FACE5_GLZ1,Surface Window Heat Gain Energy [J] !Hourly
552,1,ROOM_DE92ABD9..FACE5_GLZ1,Surface Window Heat Loss Energy [J] !Hourly
553,1,ROOM_E5C673A0..FACE1_GLZ1,Surface Window Heat Gain Energy [J] !Hourly
554,1,ROOM_E5C673A0..FACE1_GLZ1,Surface Window Heat Loss Energy [J] !Hourly
555,1,ROOM_E5C673A0..FACE2_GLZ1,Surface Window Heat Gain Energy [J] !Hourly
556,1,ROOM_E5C673A0..FACE2_GLZ1,Surface Window Heat Loss Energy [J] !Hourly
557,1,ROOM_E5C673A0..FACE3_GLZ1,Surface Window Heat Gain Energy [J] !Hourly
558,1,ROOM_E5C673A0..FACE3_GLZ1,Surface Window Heat Loss Energy [J] !Hourly
559,1,ROOM_E5C673A0..FACE4_GLZ1,Surface Window Heat Gain Energy [J] !Hourly
560,1,ROOM_E5C673A0..FACE4_GLZ1,Surface Window Heat Loss Energy [J] !Hourly
561,1,ROOM_E5C673A0..FACE5_GLZ1,Surface Window Heat Gain Energy [J] !Hourly
562,1,ROOM_E5C673A0..FACE5_GLZ1,Surface Window Heat Loss Energy [J] !Hourly
563,1,ROOM_EAF91A45..FACE1_GLZ1,Surface Window Heat Gain Energy [J] !Hourly
564,1,ROOM_EAF91A45..FACE1_GLZ1,Surface Window Heat Loss Energy [J] !Hourly
565,1,ROOM_EAF91A45..FACE2_GLZ1,Surface Window Heat Gain Energy [J] !Hourly
566,1,ROOM_EAF91A45..FACE2_GLZ1,Surface Window Heat Loss Energy [J] !Hourly
567,1,ROOM_EAF91A45..FACE3_GLZ1,Surface Window Heat Gain Energy [J] !Hourly
568,1,ROOM_EAF91A45..FACE3_GLZ1,Surface Window Heat Loss Energy [J] !Hourly
569,1,ROOM_EAF91A45..FACE4_GLZ1,Surface Window Heat Gain Energy [J] !Hourly
570,1,ROOM_EAF91A45..FACE4_GLZ1,Surface Window Heat Loss Energy [J] !Hourly
571,1,ROOM_FA36241B..FACE1_GLZ1,Surface Window Heat Gain Energy [J] !Hourly
572,1,ROOM_FA36241B..FACE1_GLZ1,Surface Window Heat Loss Energy [J] !Hourly
573,1,ROOM_FA36241B..FACE3_GLZ1,Surface Window Heat Gain Energy [J] !Hourly
574,1,ROOM_FA36241B..FACE3_GLZ1,Surface Window Heat Loss Energy [J] !Hourly
575,1,ROOM_FA36241B..FACE4_GLZ1,Surface Window Heat Gain Energy [J] !Hourly
576,1,ROOM_FA36241B..FACE4_GLZ1,Surface Window Heat Loss Energy [J] !Hourly
577,1,ROOM_FD1BC703..FACE1_GLZ1,Surface Window Heat Gain Energy [J] !Hourly
578,1,ROOM_FD1BC703..FACE1_GLZ1,Surface Window Heat Loss Energy [J] !Hourly
579,1,ROOM_FD1BC703..FACE4_GLZ1,Surface Window Heat Gain Energy [J] !Hourly
580,1,ROOM_FD1BC703..FACE4_GLZ1,Surface Window Heat Loss Energy [J] !Hourly
581,1,ROOM_1839CC8F..FACE1,Surface Average Face Conduction Heat Transfer Energy [J] !Hourly
582,1,ROOM_1839CC8F..FACE2,Surface Average Face Conduction Heat Transfer Energy [J] !Hourly
583,1,ROOM_1839CC8F..FACE3,Surface Outside Face Solar Radiation Heat Gain Energy [J] !Hourly
584,1,ROOM_1839CC8F..FACE3,Surface Average Face Conduction Heat Transfer Energy [J] !Hourly
585,1,ROOM_1839CC8F..FACE4,Surface Outside Face Solar Radiation Heat Gain Energy [J] !Hourly
586,1,ROOM_1839CC8F..FACE4,Surface Average Face Conduction Heat Transfer Energy [J] !Hourly
587,1,ROOM_1839CC8F..FACE0,Surface Average Face Conduction Heat Transfer Energy [J] !Hourly
588,1,ROOM_1839CC8F..FACE5,Surface Average Face Conduction Heat Transfer Energy [J] !Hourly
589,1,ROOM_2E2D7779..FACE1,Surface Outside Face Solar Radiation Heat Gain Energy [J] !Hourly
590,1,ROOM_2E2D7779..FACE1,Surface Average Face Conduction Heat Transfer Energy [J] !Hourly
591,1,ROOM_2E2D7779..FACE2,Surface Outside Face Solar Radiation Heat Gain Energy [J] !Hourly
592,1,ROOM_2E2D7779..FACE2,Surface Average Face Conduction Heat Transfer Energy [J] !Hourly
593,1,ROOM_2E2D7779..FACE3,Surface Outside Face Solar Radiation Heat Gain Energy [J] !Hourly
594,1,ROOM_2E2D7779..FACE3,Surface Average Face Conduction Heat Transfer Energy [J] !Hourly
595,1,ROOM_2E2D7779..FACE4,Surface Average Face Conduction Heat Transfer Energy [J] !Hourly
596,1,ROOM_2E2D7779..FACE0,Surface Average Face Conduction Heat Transfer Energy [J] !Hourly
597,1,ROOM_2E2D7779..FACE5,Surface Average Face Conduction Heat Transfer Energy [J] !Hourly
598,1,ROOM_2FA010A8..FACE1,Surface Outside Face Solar Radiation Heat Gain Energy [J] !Hourly
599,1,ROOM_2FA010A8..FACE1,Surface Average Face Conduction Heat Transfer Energy [J] !Hourly
600,1,ROOM_2FA010A8..FACE2,Surface Average Face Conduction Heat Transfer Energy [J] !Hourly
601,1,ROOM_2FA010A8..FACE3,Surface Average Face Conduction Heat Transfer Energy [J] !Hourly
602,1,ROOM_2FA010A8..FACE4,Surface Average Face Conduction Heat Transfer Energy [J] !Hourly
603,1,ROOM_2FA010A8..FACE5,Surface Outside Face Solar Radiation Heat Gain Energy [J] !Hourly
604,1,ROOM_2FA010A8..FACE5,Surface Average Face Conduction Heat Transfer Energy [J] !Hourly
605,1,ROOM_2FA010A8..FACE0,Surface Average Face Conduction Heat Transfer Energy [J] !Hourly
606,1,ROOM_2FA010A8..FACE6,Surface Average Face Conduction Heat Transfer Energy [J] !Hourly
607,1,ROOM_3CE88DE1..FACE1,Surface Outside Face Solar Radiation Heat Gain Energy [J] !Hourly
608,1,ROOM_3CE88DE1..FACE1,Surface Average Face Conduction Heat Transfer Energy [J] !Hourly
609,1,ROOM_3CE88DE1..FACE2,Surface Average Face Conduction Heat Transfer Energy [J] !Hourly
610,1,ROOM_3CE88DE1..FACE3,Surface Outside Face Solar Radiation Heat Gain Energy [J] !Hourly
611,1,ROOM_3CE88DE1..FACE3,Surface Average Face Conduction Heat Transfer Energy [J] !Hourly
612,1,ROOM_3CE88DE1..FACE4,Surface Outside Face Solar Radiation Heat Gain Energy [J] !Hourly
613,1,ROOM_3CE88DE1..FACE4,Surface Average Face Conduction Heat Transfer Energy [J] !Hourly
614,1,ROOM_3CE88DE1..FACE5,Surface Average Face Conduction Heat Transfer Energy [J] !Hourly
615,1,ROOM_3CE88DE1..FACE0,Surface Average Face Conduction Heat Transfer Energy [J] !Hourly
616,1,ROOM_3CE88DE1..FACE6,Surface Average Face Conduction Heat Transfer Energy [J] !Hourly
617,1,ROOM_CD350907..FACE1,Surface Outside Face Solar Radiation Heat Gain Energy [J] !Hourly
618,1,ROOM_CD350907..FACE1,Surface Average Face Conduction Heat Transfer Energy [J] !Hourly
619,1,ROOM_CD350907..FACE2,Surface Outside Face Solar Radiation Heat Gain Energy [J] !Hourly
620,1,ROOM_CD350907..FACE2,Surface Average Face Conduction Heat Transfer Energy [J] !Hourly
621,1,ROOM_CD350907..FACE3,Surface Outside Face Solar Radiation Heat Gain Energy [J] !Hourly
622,1,ROOM_CD350907..FACE3,Surface Average Face Conduction Heat Transfer Energy [J] !Hourly
623,1,ROOM_CD350907..FACE4,Surface Average Face Conduction Heat Transfer Energy [J] !Hourly
624,1,ROOM_CD350907..FACE0,Surface Average Face Conduction Heat Transfer Energy [J] !Hourly
625,1,ROOM_CD350907..FACE5,Surface Average Face Conduction Heat Transfer Energy [J] !Hourly
626,1,ROOM_DBDF577D..FACE1,Surface Average Face Conduction Heat Transfer Energy [J] !Hourly
627,1,ROOM_DBDF577D..FACE2,Surface Average Face Conduction Heat Transfer Energy [J] !Hourly
628,1,ROOM_DBDF577D..FACE3,Surface Outside Face Solar Radiation Heat Gain Energy [J] !Hourly
629,1,ROOM_DBDF577D..FACE3,Surface Average Face Conduction Heat Transfer Energy [J] !Hourly
630,1,ROOM_DBDF577D..FACE4,Surface Average Face Conduction Heat Transfer Energy [J] !Hourly
631,1,ROOM_DBDF577D..FACE5,Surface Outside Face Solar Radiation Heat Gain Energy [J] !Hourly
632,1,ROOM_DBDF577D..FACE5,Surface Average Face Conduction Heat Transfer Energy [J] !Hourly
633,1,ROOM_DBDF577D..FACE6,Surface Average Face Conduction Heat Transfer Energy [J] !Hourly
634,1,ROOM_DBDF577D..FACE0,Surface Average Face Conduction Heat Transfer Energy [J] !Hourly
635,1,ROOM_DBDF577D..FACE7,Surface Average Face Conduction Heat Transfer Energy [J] !Hourly
636,1,ROOM_DE92ABD9..FACE1,Surface Average Face Conduction Heat Transfer Energy [J] !Hourly
637,1,ROOM_DE92ABD9..FACE2,Surface Average Face Conduction Heat Transfer Energy [J] !Hourly
638,1,ROOM_DE92ABD9..FACE3,Surface Outside Face Solar Radiation Heat Gain Energy [J] !Hourly
639,1,ROOM_DE92ABD9..FACE3,Surface Average Face Conduction Heat Transfer Energy [J] !Hourly
640,1,ROOM_DE92ABD9..FACE4,Surface Average Face Conduction Heat Transfer Energy [J] !Hourly
641,1,ROOM_DE92ABD9..FACE5,Surface Outside Face Solar Radiation Heat Gain Energy [J] !Hourly
642,1,ROOM_DE92ABD9..FACE5,Surface Average Face Conduction Heat Transfer Energy [J] !Hourly
643,1,ROOM_DE92ABD9..FACE0,Surface Average Face Conduction Heat Transfer Energy [J] !Hourly
644,1,ROOM_DE92ABD9..FACE6,Surface Average Face Conduction Heat Transfer Energy [J] !Hourly
645,1,ROOM_E5C673A0..FACE1,Surface Outside Face Solar Radiation Heat Gain Energy [J] !Hourly
646,1,ROOM_E5C673A0..FACE1,Surface Average Face Conduction Heat Transfer Energy [J] !Hourly
647,1,ROOM_E5C673A0..FACE2,Surface Outside Face Solar Radiation Heat Gain Energy [J] !Hourly
648,1,ROOM_E5C673A0..FACE2,Surface Average Face Conduction Heat Transfer Energy [J] !Hourly
649,1,ROOM_E5C673A0..FACE3,Surface Outside Face Solar Radiation Heat Gain Energy [J] !Hourly
650,1,ROOM_E5C673A0..FACE3,Surface Average Face Conduction Heat Transfer Energy [J] !Hourly
651,1,ROOM_E5C673A0..FACE4,Surface Outside Face Solar Radiation Heat Gain Energy [J] !Hourly
652,1,ROOM_E5C673A0..FACE4,Surface Average Face Conduction Heat Transfer Energy [J] !Hourly
653,1,ROOM_E5C673A0..FACE5,Surface Outside Face Solar Radiation Heat Gain Energy [J] !Hourly
654,1,ROOM_E5C673A0..FACE5,Surface Average Face Conduction Heat Transfer Energy [J] !Hourly
655,1,ROOM_E5C673A0..FACE6,Surface Average Face Conduction Heat Transfer Energy [J] !Hourly
656,1,ROOM_E5C673A0..FACE0,Surface Average Face Conduction Heat Transfer Energy [J] !Hourly
657,1,ROOM_E5C673A0..FACE7,Surface Average Face Conduction Heat Transfer Energy [J] !Hourly
658,1,ROOM_EAF91A45..FACE1,Surface Outside Face Solar Radiation Heat Gain Energy [J] !Hourly
659,1,ROOM_EAF91A45..FACE1,Surface Average Face Conduction Heat Transfer Energy [J] !Hourly
660,1,ROOM_EAF91A45..FACE2,Surface Outside Face Solar Radiation Heat Gain Energy [J] !Hourly
661,1,ROOM_EAF91A45..FACE2,Surface Average Face Conduction Heat Transfer Energy [J] !Hourly
662,1,ROOM_EAF91A45..FACE3,Surface Outside Face Solar Radiation Heat Gain Energy [J] !Hourly
663,1,ROOM_EAF91A45..FACE3,Surface Average Face Conduction Heat Transfer Energy [J] !Hourly
664,1,ROOM_EAF91A45..FACE4,Surface Outside Face Solar Radiation Heat Gain Energy [J] !Hourly
665,1,ROOM_EAF91A45..FACE4,Surface Average Face Conduction Heat Transfer Energy [J] !Hourly
666,1,ROOM_EAF91A45..FACE0,Surface Average Face Conduction Heat Transfer Energy [J] !Hourly
667,1,ROOM_EAF91A45..FACE5,Surface Average Face Conduction Heat Transfer Energy [J] !Hourly
668,1,ROOM_FA36241B..FACE1,Surface Outside Face Solar Radiation Heat Gain Energy [J] !Hourly
669,1,ROOM_FA36241B..FACE1,Surface Average Face Conduction Heat Transfer Energy [J] !Hourly
670,1,ROOM_FA36241B..FACE2,Surface Average Face Conduction Heat Transfer Energy [J] !Hourly
671,1,ROOM_FA36241B..FACE3,Surface Outside Face Solar Radiation Heat Gain Energy [J] !Hourly
672,1,ROOM_FA36241B..FACE3,Surface Average Face Conduction Heat Transfer Energy [J] !Hourly
673,1,ROOM_FA36241B..FACE4,Surface Outside Face Solar Radiation Heat Gain Energy [J] !Hourly
674,1,ROOM_FA36241B..FACE4,Surface Average Face Conduction Heat Transfer Energy [J] !Hourly
675,1,ROOM_FA36241B..FACE5,Surface Average Face Conduction Heat Transfer Energy [J] !Hourly
676,1,ROOM_FA36241B..FACE0,Surface Average Face Conduction Heat Transfer Energy [J] !Hourly
677,1,ROOM_FA36241B..FACE6,Surface Average Face Conduction Heat Transfer Energy [J] !Hourly
678,1,ROOM_FD1BC703..FACE1,Surface Outside Face Solar Radiation Heat Gain Energy [J] !Hourly
679,1,ROOM_FD1BC703..FACE1,Surface Average Face Conduction Heat Transfer Energy [J] !Hourly
680,1,ROOM_FD1BC703..FACE2,Surface Average Face Conduction Heat Transfer Energy [J] !Hourly
681,1,ROOM_FD1BC703..FACE3,Surface Average Face Conduction Heat Transfer Energy [J] !Hourly
682,1,ROOM_FD1BC703..FACE4,Surface Outside Face Solar Radiation Heat Gain Energy [J] !Hourly
683,1,ROOM_FD1BC703..FACE4,Surface Average Face Conduction Heat Transfer Energy [J] !Hourly
684,1,ROOM_FD1BC703..FACE5,Surface Average Face Conduction Heat Transfer Energy [J] !Hourly
685,1,ROOM_FD1BC703..FACE0,Surface Average Face Conduction Heat Transfer Energy [J] !Hourly
686,1,ROOM_FD1BC703..FACE6,Surface Average Face Conduction Heat Transfer Energy [J] !Hourly
687,1,ROOM_1839CC8F,Zone Infiltration Total Heat Loss Energy [J] !Hourly
688,1,ROOM_1839CC8F,Zone Infiltration Total Heat Gain Energy [J] !Hourly
689,1,ROOM_2E2D7779,Zone Infiltration Total Heat Loss Energy [J] !Hourly
690,1,ROOM_2E2D7779,Zone Infiltration Total Heat Gain Energy [J] !Hourly
691,1,ROOM_2FA010A8,Zone Infiltration Total Heat Loss Energy [J] !Hourly
692,1,ROOM_2FA010A8,Zone Infiltration Total Heat Gain Energy [J] !Hourly
693,1,ROOM_3CE88DE1,Zone Infiltration Total Heat Loss Energy [J] !Hourly
694,1,ROOM_3CE88DE1,Zone Infiltration Total Heat Gain Energy [J] !Hourly
695,1,ROOM_CD350907,Zone Infiltration Total Heat Loss Energy [J] !Hourly
696,1,ROOM_CD350907,Zone Infiltration Total Heat Gain Energy [J] !Hourly
697,1,ROOM_DBDF577D,Zone Infiltration Total Heat Loss Energy [J] !Hourly
698,1,ROOM_DBDF577D,Zone Infiltration Total Heat Gain Energy [J] !Hourly
699,1,ROOM_DE92ABD9,Zone Infiltration Total Heat Loss Energy [J] !Hourly
700,1,ROOM_DE92ABD9,Zone Infiltration Total Heat Gain Energy [J] !Hourly
701,1,ROOM_E5C673A0,Zone Infiltration Total Heat Loss Energy [J] !Hourly
702,1,ROOM_E5C673A0,Zone Infiltration Total Heat Gain Energy [J] !Hourly
703,1,ROOM_EAF91A45,Zone Infiltration Total Heat Loss Energy [J] !Hourly
704,1,ROOM_EAF91A45,Zone Infiltration Total Heat Gain Energy [J] !Hourly
705,1,ROOM_FA36241B,Zone Infiltration Total Heat Loss Energy [J] !Hourly
706,1,ROOM_FA36241B,Zone Infiltration Total Heat Gain Energy [J] !Hourly
707,1,ROOM_FD1BC703,Zone Infiltration Total Heat Loss Energy [J] !Hourly
708,1,ROOM_FD1BC703,Zone Infiltration Total Heat Gain Energy [J] !Hourly
1346,1,ROOM_1839CC8F IDEAL LOADS AIR SYSTEM,Zone Ideal Loads Supply Air Total Heating Energy [J] !Hourly
1395,1,ROOM_1839CC8F IDEAL LOADS AIR SYSTEM,Zone Ideal Loads Supply Air Total Cooling Energy [J] !Hourly
1444,1,ROOM_1839CC8F IDEAL LOADS AIR SYSTEM,Zone Ideal Loads Zone Total Heating Energy [J] !Hourly
1445,1,ROOM_1839CC8F IDEAL LOADS AIR SYSTEM,Zone Ideal Loads Zone Total Cooling Energy [J] !Hourly
1446,1,ROOM_2E2D7779 IDEAL LOADS AIR SYSTEM,Zone Ideal Loads Supply Air Total Heating Energy [J] !Hourly
1447,1,ROOM_2E2D7779 IDEAL LOADS AIR SYSTEM,Zone Ideal Loads Supply Air Total Cooling Energy [J] !Hourly
1448,1,ROOM_2E2D7779 IDEAL LOADS AIR SYSTEM,Zone Ideal Loads Zone Total Heating Energy [J] !Hourly
1449,1,ROOM_2E2D7779 IDEAL LOADS AIR SYSTEM,Zone Ideal Loads Zone Total Cooling Energy [J] !Hourly
1450,1,ROOM_2FA010A8 IDEAL LOADS AIR SYSTEM,Zone Ideal Loads Supply Air Total Heating Energy [J] !Hourly
1451,1,ROOM_2FA010A8 IDEAL LOADS AIR SYSTEM,Zone Ideal Loads Supply Air Total Cooling Energy [J] !Hourly
1452,1,ROOM_2FA010A8 IDEAL LOADS AIR SYSTEM,Zone Ideal Loads Zone Total Heating Energy [J] !Hourly
1453,1,ROOM_2FA010A8 IDEAL LOADS AIR SYSTEM,Zone Ideal Loads Zone Total Cooling Energy [J] !Hourly
1454,1,ROOM_3CE88DE1 IDEAL LOADS AIR SYSTEM,Zone Ideal Loads Supply Air Total Heating Energy [J] !Hourly
1455,1,ROOM_3CE88DE1 IDEAL LOADS AIR SYSTEM,Zone Ideal Loads Supply Air Total Cooling Energy [J] !Hourly
1456,1,ROOM_3CE88DE1 IDEAL LOADS AIR SYSTEM,Zone Ideal Loads Zone Total Heating Energy [J] !Hourly
1457,1,ROOM_3CE88DE1 IDEAL LOADS AIR SYSTEM,Zone Ideal Loads Zone Total Cooling Energy [J] !Hourly
1458,1,ROOM_CD350907 IDEAL LOADS AIR SYSTEM,Zone Ideal Loads Supply Air Total Heating Energy [J] !Hourly
1459,1,ROOM_CD350907 IDEAL LOADS AIR SYSTEM,Zone Ideal Loads Supply Air Total Cooling Energy [J] !Hourly
1460,1,ROOM_CD350907 IDEAL LOADS AIR SYSTEM,Zone Ideal Loads Zone Total Heating Energy [J] !Hourly
1461,1,ROOM_CD350907 IDEAL LOADS AIR SYSTEM,Zone Ideal Loads Zone Total Cooling Energy [J] !Hourly
1462,1,ROOM_DBDF577D IDEAL LOADS AIR SYSTEM,Zone Ideal Loads Supply Air Total Heating Energy [J] !Hourly
1463,1,ROOM_DBDF577D IDEAL LOADS AIR SYSTEM,Zone Ideal Loads Supply Air Total Cooling Energy [J] !Hourly
1464,1,ROOM_DBDF577D IDEAL LOADS AIR SYSTEM,Zone Ideal Loads Zone Total Heating Energy [J] !Hourly
1465,1,ROOM_DBDF577D IDEAL LOADS AIR SYSTEM,Zone Ideal Loads Zone Total Cooling Energy [J] !Hourly
1466,1,ROOM_DE92ABD9 IDEAL LOADS AIR SYSTEM,Zone Ideal Loads Supply Air Total Heating Energy [J] !Hourly
1467,1,ROOM_DE92ABD9 IDEAL LOADS AIR SYSTEM,Zone Ideal Loads Supply Air Total Cooling Energy [J] !Hourly
1468,1,ROOM_DE92ABD9 IDEAL LOADS AIR SYSTEM,Zone Ideal Loads Zone Total Heating Energy [J] !Hourly
1469,1,ROOM_DE92ABD9 IDEAL LOADS AIR SYSTEM,Zone Ideal Loads Zone Total Cooling Energy [J] !Hourly
1470,1,ROOM_E5C673A0 IDEAL LOADS AIR SYSTEM,Zone Ideal Loads Supply Air Total Heating Energy [J] !Hourly
1471,1,ROOM_E5C673A0 IDEAL LOADS AIR SYSTEM,Zone Ideal Loads Supply Air Total Cooling Energy [J] !Hourly
1472,1,ROOM_E5C673A0 IDEAL LOADS AIR SYSTEM,Zone Ideal Loads Zone Total Heating Energy [J] !Hourly
1473,1,ROOM_E5C673A0 IDEAL LOADS AIR SYSTEM,Zone Ideal Loads Zone Total Cooling Energy [J] !Hourly
1474,1,ROOM_EAF91A45 IDEAL LOADS AIR SYSTEM,Zone Ideal Loads Supply Air Total Heating Energy [J] !Hourly
1475,1,ROOM_EAF91A45 IDEAL LOADS AIR SYSTEM,Zone Ideal Loads Supply Air Total Cooling Energy [J] !Hourly
1476,1,ROOM_EAF91A45 IDEAL LOADS AIR SYSTEM,Zone Ideal Loads Zone Total Heating Energy [J] !Hourly
1477,1,ROOM_EAF91A45 IDEAL LOADS AIR SYSTEM,Zone Ideal Loads Zone Total Cooling Energy [J] !Hourly
1478,1,ROOM_FA36241B IDEAL LOADS AIR SYSTEM,Zone Ideal Loads Supply Air Total Heating Energy [J] !Hourly
1479,1,ROOM_FA36241B IDEAL LOADS AIR SYSTEM,Zone Ideal Loads Supply Air Total Cooling Energy [J] !Hourly
1480,1,ROOM_FA36241B IDEAL LOADS AIR SYSTEM,Zone Ideal Loads Zone Total Heating Energy [J] !Hourly
1481,1,ROOM_FA36241B IDEAL LOADS AIR SYSTEM,Zone Ideal Loads Zone Total Cooling Energy [J] !Hourly
1482,1,ROOM_FD1BC703 IDEAL LOADS AIR SYSTEM,Zone Ideal Loads Supply Air Total Heating Energy [J] !Hourly
1483,1,ROOM_FD1BC703 IDEAL LOADS AIR SYSTEM,Zone Ideal Loads Supply Air Total Cooling Energy [J] !Hourly
1484,1,ROOM_FD1BC703 IDEAL LOADS AIR SYSTEM,Zone Ideal Loads Zone Total Heating Energy [J] !Hourly
1485,1,ROOM_FD1BC703 IDEAL LOADS AIR SYSTEM,Zone Ideal Loads Zone Total Cooling Energy [J] !Hourly
End of Data Dictionary
1,RUN PERIOD 1,  42.37, -71.02,  -5.00,   6.00
2,1, 1, 1, 0, 1, 0.00,60.00,Sunday
7,0.0
8,0.0
9,0.0
10,0.0
11,0.0
12,0.0
13,0.0
14,0.0
15,0.0
16,0.0
17,0.0
508,0.0
509,0.0
510,0.0
511,0.0
512,0.0
513,0.0
514,0.0
515,0.0
516,0.0
517,0.0
518,0.0
519,0.0
520,239464.10332424107
521,0.0
522,289762.98915639
523,0.0
524,160483.75183919056
525,0.0
526,175623.14814016949
527,0.0
528,146387.82777892747
529,0.0
530,399784.81850266738
531,0.0
532,186930.0659207289
533,0.0
534,345660.4096885384
535,0.0
536,23995.791859389723
537,0.0
538,340275.70897312098
539,0.0
540,120297.9739490128
541,0.0
542,92171.1588066541
543,0.0
544,125736.4050812129
545,0.0
546,1568.2955611786259
547,0.0
548,146239.70414145795
549,0.0
550,226767.4934428123
551,0.0
552,206325.48466940956
553,0.0
554,414346.51413723317
555,0.0
556,349768.4600194886
557,0.0
558,221436.18508274196
559,0.0
560,171719.74236180643
561,0.0
562,171032.54666218139
563,0.0
564,135911.2891858565
565,0.0
566,242759.65964041465
567,0.0
568,150055.52098669095
569,0.0
570,223574.55950779943
571,0.0
572,153099.58015477114
573,0.0
574,63810.317236521645
575,0.0
576,77140.36274817898
577,0.0
578,196419.45233995038
579,0.0
580,217722.46701109893
581,26307.09967243486
582,9703.75031380202
583,0.0
584,-107862.02880168228
585,0.0
586,-275948.06530896949
587,99364.03066285642
588,12597.035208107394
589,0.0
590,-311820.7924711736
591,0.0
592,-125467.08215162394
593,0.0
594,-63257.81051425624
595,13702.679954182939
596,104798.63990461607
597,11355.140338175192
598,0.0
599,-740267.6384004051
600,-5668.639662480064
601,-6930.623529752776
602,-20107.192399720712
603,0.0
604,-179422.14655465293
605,299810.4928748261
606,45724.14025071309
607,0.0
608,-654148.476323489
609,469.96616643648999
610,0.0
611,-11396.319036904042
612,0.0
613,-171223.37494018509
614,6294.641556954677
615,236821.803968648
616,34912.63247790478
617,0.0
618,-137267.56892213564
619,0.0
620,-45298.878173544064
621,0.0
622,-54982.0088514728
623,9166.801717709035
624,25400.28534190647
625,1013.7565487458287
626,11391.383675865258
627,343.58691510160727
628,0.0
629,-703.765732701489
630,-21572.07726646906
631,0.0
632,-63390.63161364115
633,-9785.50402481477
634,24006.371896666824
635,4817.243863054489
636,86.7735716795514
637,13798.93629775612
638,0.0
639,-425484.3482673868
640,-560.1474533410976
641,0.0
642,-83050.95860485018
643,148827.14917284359
644,23004.43962977521
645,0.0
646,-625705.3658126085
647,0.0
648,-185569.2446847242
649,0.0
650,-100563.00452664442
651,0.0
652,-87725.82047829773
653,0.0
654,-73537.83393287908
655,-510.3096540949292
656,292208.24109853917
657,29291.419400061342
658,0.0
659,-88545.94446223983
660,0.0
661,-170203.64896549303
662,0.0
663,-66723.6436214183
664,0.0
665,-123540.0726787288
666,38286.751367525394
667,925.3757378158915
668,0.0
669,-289410.1922953462
670,-12442.184654128803
671,0.0
672,-27484.64058808707
673,0.0
674,-33893.79633425743
675,3948.369452094714
676,95053.5212596364
677,13559.008138163783
678,0.0
679,-80817.1742206735
680,-1907.7800182696097
681,-13210.944662692402
682,0.0
683,-94539.04385024705
684,19251.63689313096
685,21247.659933319315
686,1959.4882871155103
687,335195.56042966977
688,0.0
689,325438.2467818121
690,0.0
691,356238.4189343226
692,0.0
693,450739.83817034817
694,0.0
695,244153.44653851796
696,0.0
697,90901.91939795905
698,0.0
699,282504.4031449233
700,0.0
701,894290.41350806
702,0.0
703,549529.222275652
704,0.0
705,192872.96566752986
706,0.0
707,281449.57091373318
708,0.0
1346,1243364.2305124948
1395,0.0
1444,779938.0102604247
1445,0.0
1446,950957.9760220448
1447,0.0
1448,752650.2905915814
1449,0.0
1450,869187.8950381297
1451,0.0
1452,410495.7563169748
1453,0.0
1454,1293592.3887179308
1455,0.0
1456,824849.9526277784
1457,0.0
1458,808247.7599873733
1459,0.0
1460,709385.7871013193
1461,0.0
1462,525614.761637345
1463,0.0
1464,250581.5055789873
1465,0.0
1466,779758.8083232935
1467,0.0
1468,476180.25285669046
1469,0.0
1470,3001620.429898199
1471,0.0
1472,2181862.2942336599
1473,0.0
1474,1964710.0150501254
1475,0.0
1476,1672564.827279961
1477,0.0
1478,561464.3023915307
1479,0.0
1480,379299.7679032939
1481,0.0
1482,1236064.323425233
1483,0.0
1484,843911.4899322618
1485,0.0
2,1, 1, 1, 0, 2, 0.00,60.00,Sunday
7,0.0
8,0.0
9,0.0
10,0.0
11,0.0
12,0.0
13,0.0
14,0.0
15,0.0
16,0.0
17,0.0
508,0.0
509,0.0
510,0.0
511,0.0
512,0.0
513,0.0
514,0.0
515,0.0
516,0.0
517,0.0
518,0.0
519,0.0
520,185861.24098651199
521,0.0
522,224895.1324978858
523,0.0
524,124201.38681180623
525,0.0
526,135877.3823487189
527,0.0
528,114854.6969970444
529,0.0
530,312252.37616475098
531,0.0
532,145864.61133946776
533,0.0
534,268761.4245944496
535,0.0
536,18833.690076239844
537,0.0
538,265292.68931997325
539,0.0
540,93198.26774629018
541,0.0
542,71986.21894747443
543,0.0
544,96664.27963712464
545,0.0
546,1237.5523389000173
547,0.0
548,114072.66564090425
549,0.0
550,176561.23137076433
551,0.0
552,162943.4703761422
553,0.0
554,319999.819759613
555,0.0
556,273088.9655096864
557,0.0
558,170880.7263690497
559,0.0
560,133405.42716826069
561,0.0
562,132341.68579548793
563,0.0
564,105793.32677564277
565,0.0
566,185865.3656165057
567,0.0
568,114963.76362649074
569,0.0
570,173176.12737896233
571,0.0
572,119015.28757343792
573,0.0
574,50099.46050717549
575,0.0
576,60829.879413801944
577,0.0
578,154558.1086733648
579,0.0
580,168452.84986284562
581,22361.52831545261
582,8633.008852826735
583,0.0
584,126491.01549492745
585,0.0
586,22325.59050750811
587,77924.35446393155
588,7571.701212885325
589,0.0
590,-127141.6654313433
591,0.0
592,55701.37662064884
593,0.0
594,82351.49926552052
595,11982.508800042107
596,84997.7927147438
597,7045.7188670419159
598,0.0
599,-310259.03467018317
600,-5861.414693437831
601,-6138.821486275961
602,-18251.296386241265
603,0.0
604,5749.133210557962
605,252126.38052061818
606,35601.10044403989
607,0.0
608,-269991.28054752256
609,-469.51696052833526
610,0.0
611,11669.3636482956
612,0.0
613,156844.1296329149
614,4797.842044306593
615,195292.86812938407
616,24819.14378249651
617,0.0
618,-2597.0717636284746
619,0.0
620,52756.575678661364
621,0.0
622,76192.65565441808
623,8523.499646699152
624,17201.996962015426
625,-399.3273419752577
626,9036.883552313895
627,127.77601282286418
628,0.0
629,807.1572287086956
630,-20613.828646610367
631,0.0
632,75899.71349687156
633,-10026.248318651218
634,18870.01937647967
635,2960.7443499355028
636,58.595478941046739
637,11364.555236340251
638,0.0