Program Version,EnergyPlus, Version 9.3.0-baff08990c, YMD=2021.04.24 20:46
1,5,Environment Title[],Latitude[deg],Longitude[deg],Time Zone[],Elevation[m]
2,8,Day of Simulation[],Month[],Day of Month[],DST Indicator[1=yes 0=no],Hour[],StartMinute[],EndMinute[],DayType
3,5,Cumulative Day of Simulation[],Month[],Day of Month[],DST Indicator[1=yes 0=no],DayType  ! When Daily Report Variables Requested
4,2,Cumulative Days of Simulation[],Month[]  ! When Monthly Report Variables Requested
5,1,Cumulative Days of Simulation[] ! When Run Period Report Variables Requested
6,1,Calendar Year of Simulation[] ! When Annual Report Variables Requested
7,1,ROOM_012C6109,Zone People Total Heating Energy [J] !Hourly
8,1,ROOM_0A9F4C30,Zone People Total Heating Energy [J] !Hourly
9,1,ROOM_0EA917C0,Zone People Total Heating Energy [J] !Hourly
10,1,ROOM_26F53AD9,Zone People Total Heating Energy [J] !Hourly
11,1,ROOM_4D7DCD9D,Zone People Total Heating Energy [J] !Hourly
12,1,ROOM_641197E7,Zone People Total Heating Energy [J] !Hourly
13,1,ROOM_6ABD84E9,Zone People Total Heating Energy [J] !Hourly
14,1,ROOM_7BB421C7,Zone People Total Heating Energy [J] !Hourly
15,1,ROOM_9ED4D22F,Zone People Total Heating Energy [J] !Hourly
16,1,ROOM_B18E5A77,Zone People Total Heating Energy [J] !Hourly
17,1,ROOM_B5592C9E,Zone People Total Heating Energy [J] !Hourly
18,1,ROOM_C418204E,Zone People Total Heating Energy [J] !Hourly
19,1,ROOM_D45983FE,Zone People Total Heating Energy [J] !Hourly
20,1,ROOM_EFF6C672,Zone People Total Heating Energy [J] !Hourly
21,1,ROOM_F2D078AC,Zone People Total Heating Energy [J] !Hourly
664,1,ROOM_012C6109,Zone Windows Total Transmitted Solar Radiation Energy [J] !Hourly
665,1,ROOM_0A9F4C30,Zone Windows Total Transmitted Solar Radiation Energy [J] !Hourly
666,1,ROOM_0EA917C0,Zone Windows Total Transmitted Solar Radiation Energy [J] !Hourly
667,1,ROOM_26F53AD9,Zone Windows Total Transmitted Solar Radiation Energy [J] !Hourly
668,1,ROOM_4D7DCD9D,Zone Windows Total Transmitted Solar Radiation Energy [J] !Hourly
669,1,ROOM_641197E7,Zone Windows Total Transmitted Solar Radiation Energy [J] !Hourly
670,1,ROOM_6ABD84E9,Zone Windows Total Transmitted Solar Radiation Energy [J] !Hourly
671,1,ROOM_7BB421C7,Zone Windows Total Transmitted Solar Radiation Energy [J] !Hourly
672,1,ROOM_9ED4D22F,Zone Windows Total Transmitted Solar Radiation Energy [J] !Hourly
673,1,ROOM_B18E5A77,Zone Windows Total Transmitted Solar Radiation Energy [J] !Hourly
674,1,ROOM_B5592C9E,Zone Windows Total Transmitted Solar Radiation Energy [J] !Hourly
675,1,ROOM_C418204E,Zone Windows Total Transmitted Solar Radiation Energy [J] !Hourly
676,1,ROOM_D45983FE,Zone Windows Total Transmitted Solar Radiation Energy [J] !Hourly
677,1,ROOM_EFF6C672,Zone Windows Total Transmitted Solar Radiation Energy [J] !Hourly
678,1,ROOM_F2D078AC,Zone Windows Total Transmitted Solar Radiation Energy [J] !Hourly
679,1,ROOM_012C6109..FACE2_GLZ1,Surface Window Heat Gain Energy [J] !Hourly
680,1,ROOM_012C6109..FACE2_GLZ1,Surface Window Heat Loss Energy [J] !Hourly
681,1,ROOM_012C6109..FACE3_GLZ1,Surface Window Heat Gain Energy [J] !Hourly
682,1,ROOM_012C6109..FACE3_GLZ1,Surface Window Heat Loss Energy [J] !Hourly
683,1,ROOM_0A9F4C30..FACE3_GLZ1,Surface Window Heat Gain Energy [J] !Hourly
684,1,ROOM_0A9F4C30..FACE3_GLZ1,Surface Window Heat Loss Energy [J] !Hourly
685,1,ROOM_0EA917C0..FACE4_GLZ1,Surface Window Heat Gain Energy [J] !Hourly
686,1,ROOM_0EA917C0..FACE4_GLZ1,Surface Window Heat Loss Energy [J] !Hourly
687,1,ROOM_0EA917C0..FACE5_GLZ1,Surface Window Heat Gain Energy [J] !Hourly
688,1,ROOM_0EA917C0..FACE5_GLZ1,Surface Window Heat Loss Energy [J] !Hourly
689,1,ROOM_26F53AD9..FACE1_GLZ1,Surface Window Heat Gain Energy [J] !Hourly
690,1,ROOM_26F53AD9..FACE1_GLZ1,Surface Window Heat Loss Energy [J] !Hourly
691,1,ROOM_4D7DCD9D..FACE1_GLZ1,Surface Window Heat Gain Energy [J] !Hourly
692,1,ROOM_4D7DCD9D..FACE1_GLZ1,Surface Window Heat Loss Energy [J] !Hourly
693,1,ROOM_4D7DCD9D..FACE4_GLZ1,Surface Window Heat Gain Energy [J] !Hourly
694,1,ROOM_4D7DCD9D..FACE4_GLZ1,Surface Window Heat Loss Energy [J] !Hourly
695,1,ROOM_641197E7..FACE1_GLZ1,Surface Window Heat Gain Energy [J] !Hourly
696,1,ROOM_641197E7..FACE1_GLZ1,Surface Window Heat Loss Energy [J] !Hourly
697,1,ROOM_9ED4D22F..FACE4_GLZ1,Surface Window Heat Gain Energy [J] !Hourly
698,1,ROOM_9ED4D22F..FACE4_GLZ1,Surface Window Heat Loss Energy [J] !Hourly
699,1,ROOM_9ED4D22F..FACE5_GLZ1,Surface Window Heat Gain Energy [J] !Hourly
700,1,ROOM_9ED4D22F..FACE5_GLZ1,Surface Window Heat Loss Energy [J] !Hourly
701,1,ROOM_B18E5A77..FACE3_GLZ1,Surface Window Heat Gain Energy [J] !Hourly
702,1,ROOM_B18E5A77..FACE3_GLZ1,Surface Window Heat Loss Energy [J] !Hourly
703,1,ROOM_B5592C9E..FACE2_GLZ1,Surface Window Heat Gain Energy [J] !Hourly
704,1,ROOM_B5592C9E..FACE2_GLZ1,Surface Window Heat Loss Energy [J] !Hourly
705,1,ROOM_B5592C9E..FACE3_GLZ1,Surface Window Heat Gain Energy [J] !Hourly
706,1,ROOM_B5592C9E..FACE3_GLZ1,Surface Window Heat Loss Energy [J] !Hourly
707,1,ROOM_C418204E..FACE3_GLZ1,Surface Window Heat Gain Energy [J] !Hourly
708,1,ROOM_C418204E..FACE3_GLZ1,Surface Window Heat Loss Energy [J] !Hourly
709,1,ROOM_C418204E..FACE4_GLZ1,Surface Window Heat Gain Energy [J] !Hourly
710,1,ROOM_C418204E..FACE4_GLZ1,Surface Window Heat Loss Energy [J] !Hourly
711,1,ROOM_D45983FE..FACE1_GLZ1,Surface Window Heat Gain Energy [J] !Hourly
712,1,ROOM_D45983FE..FACE1_GLZ1,Surface Window Heat Loss Energy [J] !Hourly
713,1,ROOM_EFF6C672..FACE1_GLZ1,Surface Window Heat Gain Energy [J] !Hourly
714,1,ROOM_EFF6C672..FACE1_GLZ1,Surface Window Heat Loss Energy [J] !Hourly
715,1,ROOM_EFF6C672..FACE2_GLZ1,Surface Window Heat Gain Energy [J] !Hourly
716,1,ROOM_EFF6C672..FACE2_GLZ1,Surface Window Heat Loss Energy [J] !Hourly
717,1,ROOM_F2D078AC..FACE3_GLZ1,Surface Window Heat Gain Energy [J] !Hourly
718,1,ROOM_F2D078AC..FACE3_GLZ1,Surface Window Heat Loss Energy [J] !Hourly
719,1,ROOM_F2D078AC..FACE4_GLZ1,Surface Window Heat Gain Energy [J] !Hourly
720,1,ROOM_F2D078AC..FACE4_GLZ1,Surface Window Heat Loss Energy [J] !Hourly
721,1,ROOM_012C6109..FACE1,Surface Average Face Conduction Heat Transfer Energy [J] !Hourly
722,1,ROOM_012C6109..FACE2,Surface Outside Face Solar Radiation Heat Gain Energy [J] !Hourly
723,1,ROOM_012C6109..FACE2,Surface Average Face Conduction Heat Transfer Energy [J] !Hourly
724,1,ROOM_012C6109..FACE3,Surface Outside Face Solar Radiation Heat Gain Energy [J] !Hourly
725,1,ROOM_012C6109..FACE3,Surface Average Face Conduction Heat Transfer Energy [J] !Hourly
726,1,ROOM_012C6109..FACE4,Surface Average Face Conduction Heat Transfer Energy [J] !Hourly
727,1,ROOM_012C6109..FACE0,Surface Average Face Conduction Heat Transfer Energy [J] !Hourly
728,1,ROOM_012C6109..FACE5,Surface Average Face Conduction Heat Transfer Energy [J] !Hourly
729,1,ROOM_0A9F4C30..FACE1,Surface Average Face Conduction Heat Transfer Energy [J] !Hourly
730,1,ROOM_0A9F4C30..FACE2,Surface Average Face Conduction Heat Transfer Energy [J] !Hourly
731,1,ROOM_0A9F4C30..FACE3,Surface Outside Face Solar Radiation Heat Gain Energy [J] !Hourly
732,1,ROOM_0A9F4C30..FACE3,Surface Average Face Conduction Heat Transfer Energy [J] !Hourly
733,1,ROOM_0A9F4C30..FACE0,Surface Average Face Conduction Heat Transfer Energy [J] !Hourly
734,1,ROOM_0A9F4C30..FACE4,Surface Average Face Conduction Heat Transfer Energy [J] !Hourly
735,1,ROOM_0EA917C0..FACE1,Surface Average Face Conduction Heat Transfer Energy [J] !Hourly
736,1,ROOM_0EA917C0..FACE2,Surface Average Face Conduction Heat Transfer Energy [J] !Hourly
737,1,ROOM_0EA917C0..FACE3,Surface Average Face Conduction Heat Transfer Energy [J] !Hourly
738,1,ROOM_0EA917C0..FACE4,Surface Outside Face Solar Radiation Heat Gain Energy [J] !Hourly
739,1,ROOM_0EA917C0..FACE4,Surface Average Face Conduction Heat Transfer Energy [J] !Hourly
740,1,ROOM_0EA917C0..FACE5,Surface Outside Face Solar Radiation Heat Gain Energy [J] !Hourly
741,1,ROOM_0EA917C0..FACE5,Surface Average Face Conduction Heat Transfer Energy [J] !Hourly
742,1,ROOM_0EA917C0..FACE0,Surface Average Face Conduction Heat Transfer Energy [J] !Hourly
743,1,ROOM_0EA917C0..FACE6,Surface Average Face Conduction Heat Transfer Energy [J] !Hourly
744,1,ROOM_26F53AD9..FACE1,Surface Outside Face Solar Radiation Heat Gain Energy [J] !Hourly
745,1,ROOM_26F53AD9..FACE1,Surface Average Face Conduction Heat Transfer Energy [J] !Hourly
746,1,ROOM_26F53AD9..FACE2,Surface Average Face Conduction Heat Transfer Energy [J] !Hourly
747,1,ROOM_26F53AD9..FACE3,Surface Average Face Conduction Heat Transfer Energy [J] !Hourly
748,1,ROOM_26F53AD9..FACE4,Surface Average Face Conduction Heat Transfer Energy [J] !Hourly
749,1,ROOM_26F53AD9..FACE5,Surface Average Face Conduction Heat Transfer Energy [J] !Hourly
750,1,ROOM_26F53AD9..FACE0,Surface Average Face Conduction Heat Transfer Energy [J] !Hourly
751,1,ROOM_26F53AD9..FACE6,Surface Average Face Conduction Heat Transfer Energy [J] !Hourly
752,1,ROOM_4D7DCD9D..FACE1,Surface Outside Face Solar Radiation Heat Gain Energy [J] !Hourly
753,1,ROOM_4D7DCD9D..FACE1,Surface Average Face Conduction Heat Transfer Energy [J] !Hourly
754,1,ROOM_4D7DCD9D..FACE2,Surface Average Face Conduction Heat Transfer Energy [J] !Hourly
755,1,ROOM_4D7DCD9D..FACE3,Surface Average Face Conduction Heat Transfer Energy [J] !Hourly
756,1,ROOM_4D7DCD9D..FACE4,Surface Outside Face Solar Radiation Heat Gain Energy [J] !Hourly
757,1,ROOM_4D7DCD9D..FACE4,Surface Average Face Conduction Heat Transfer Energy [J] !Hourly
758,1,ROOM_4D7DCD9D..FACE0,Surface Average Face Conduction Heat Transfer Energy [J] !Hourly
759,1,ROOM_4D7DCD9D..FACE5,Surface Average Face Conduction Heat Transfer Energy [J] !Hourly
760,1,ROOM_641197E7..FACE1,Surface Outside Face Solar Radiation Heat Gain Energy [J] !Hourly
761,1,ROOM_641197E7..FACE1,Surface Average Face Conduction Heat Transfer Energy [J] !Hourly
762,1,ROOM_641197E7..FACE2,Surface Average Face Conduction Heat Transfer Energy [J] !Hourly
763,1,ROOM_641197E7..FACE3,Surface Average Face Conduction Heat Transfer Energy [J] !Hourly
764,1,ROOM_641197E7..FACE4,Surface Average Face Conduction Heat Transfer Energy [J] !Hourly
765,1,ROOM_641197E7..FACE0,Surface Average Face Conduction Heat Transfer Energy [J] !Hourly
766,1,ROOM_641197E7..FACE5,Surface Average Face Conduction Heat Transfer Energy [J] !Hourly
767,1,ROOM_6ABD84E9..FACE1,Surface Average Face Conduction Heat Transfer Energy [J] !Hourly
768,1,ROOM_6ABD84E9..FACE2,Surface Average Face Conduction Heat Transfer Energy [J] !Hourly
769,1,ROOM_6ABD84E9..FACE3,Surface Average Face Conduction Heat Transfer Energy [J] !Hourly
770,1,ROOM_6ABD84E9..FACE4,Surface Average Face Conduction Heat Transfer Energy [J] !Hourly
771,1,ROOM_6ABD84E9..FACE5,Surface Average Face Conduction Heat Transfer Energy [J] !Hourly
772,1,ROOM_6ABD84E9..FACE6,Surface Average Face Conduction Heat Transfer Energy [J] !Hourly
773,1,ROOM_6ABD84E9..FACE0,Surface Average Face Conduction Heat Transfer Energy [J] !Hourly
774,1,ROOM_6ABD84E9..FACE7,Surface Average Face Conduction Heat Transfer Energy [J] !Hourly
775,1,ROOM_7BB421C7..FACE1,Surface Average Face Conduction Heat Transfer Energy [J] !Hourly
776,1,ROOM_7BB421C7..FACE2,Surface Average Face Conduction Heat Transfer Energy [J] !Hourly
777,1,ROOM_7BB421C7..FACE3,Surface Average Face Conduction Heat Transfer Energy [J] !Hourly
778,1,ROOM_7BB421C7..FACE4,Surface Average Face Conduction Heat Transfer Energy [J] !Hourly
779,1,ROOM_7BB421C7..FACE0,Surface Average Face Conduction Heat Transfer Energy [J] !Hourly
780,1,ROOM_7BB421C7..FACE5,Surface Average Face Conduction Heat Transfer Energy [J] !Hourly
781,1,ROOM_9ED4D22F..FACE1,Surface Average Face Conduction Heat Transfer Energy [J] !Hourly
782,1,ROOM_9ED4D22F..FACE2,Surface Average Face Conduction Heat Transfer Energy [J] !Hourly
783,1,ROOM_9ED4D22F..FACE3,Surface Average Face Conduction Heat Transfer Energy [J] !Hourly
784,1,ROOM_9ED4D22F..FACE4,Surface Outside Face Solar Radiation Heat Gain Energy [J] !Hourly
785,1,ROOM_9ED4D22F..FACE4,Surface Average Face Conduction Heat Transfer Energy [J] !Hourly
786,1,ROOM_9ED4D22F..FACE5,Surface Outside Face Solar Radiation Heat Gain Energy [J] !Hourly
787,1,ROOM_9ED4D22F..FACE5,Surface Average Face Conduction Heat Transfer Energy [J] !Hourly
788,1,ROOM_9ED4D22F..FACE6,Surface Average Face Conduction Heat Transfer Energy [J] !Hourly
789,1,ROOM_9ED4D22F..FACE7,Surface Average Face Conduction Heat Transfer Energy [J] !Hourly
790,1,ROOM_9ED4D22F..FACE0,Surface Average Face Conduction Heat Transfer Energy [J] !Hourly
791,1,ROOM_9ED4D22F..FACE8,Surface Average Face Conduction Heat Transfer Energy [J] !Hourly
792,1,ROOM_B18E5A77..FACE1,Surface Average Face Conduction Heat Transfer Energy [J] !Hourly
793,1,ROOM_B18E5A77..FACE2,Surface Average Face Conduction Heat Transfer Energy [J] !Hourly
794,1,ROOM_B18E5A77..FACE3,Surface Outside Face Solar Radiation Heat Gain Energy [J] !Hourly
795,1,ROOM_B18E5A77..FACE3,Surface Average Face Conduction Heat Transfer Energy [J] !Hourly
796,1,ROOM_B18E5A77..FACE4,Surface Average Face Conduction Heat Transfer Energy [J] !Hourly
797,1,ROOM_B18E5A77..FACE0,Surface Average Face Conduction Heat Transfer Energy [J] !Hourly
798,1,ROOM_B18E5A77..FACE5,Surface Average Face Conduction Heat Transfer Energy [J] !Hourly
799,1,ROOM_B5592C9E..FACE1,Surface Average Face Conduction Heat Transfer Energy [J] !Hourly
800,1,ROOM_B5592C9E..FACE2,Surface Outside Face Solar Radiation Heat Gain Energy [J] !Hourly
801,1,ROOM_B5592C9E..FACE2,Surface Average Face Conduction Heat Transfer Energy [J] !Hourly
802,1,ROOM_B5592C9E..FACE3,Surface Outside Face Solar Radiation Heat Gain Energy [J] !Hourly
803,1,ROOM_B5592C9E..FACE3,Surface Average Face Conduction Heat Transfer Energy [J] !Hourly
804,1,ROOM_B5592C9E..FACE4,Surface Average Face Conduction Heat Transfer Energy [J] !Hourly
805,1,ROOM_B5592C9E..FACE0,Surface Average Face Conduction Heat Transfer Energy [J] !Hourly
806,1,ROOM_B5592C9E..FACE5,Surface Average Face Conduction Heat Transfer Energy [J] !Hourly
807,1,ROOM_C418204E..FACE1,Surface Average Face Conduction Heat Transfer Energy [J] !Hourly
808,1,ROOM_C418204E..FACE2,Surface Average Face Conduction Heat Transfer Energy [J] !Hourly
809,1,ROOM_C418204E..FACE3,Surface Outside Face Solar Radiation Heat Gain Energy [J] !Hourly
810,1,ROOM_C418204E..FACE3,Surface Average Face Conduction Heat Transfer Energy [J] !Hourly
811,1,ROOM_C418204E..FACE4,Surface Outside Face Solar Radiation Heat Gain Energy [J] !Hourly
812,1,ROOM_C418204E..FACE4,Surface Average Face Conduction Heat Transfer Energy [J] !Hourly
813,1,ROOM_C418204E..FACE5,Surface Average Face Conduction Heat Transfer Energy [J] !Hourly
814,1,ROOM_C418204E..FACE6,Surface Average Face Conduction Heat Transfer Energy [J] !Hourly
815,1,ROOM_C418204E..FACE0,Surface Average Face Conduction Heat Transfer Energy [J] !Hourly
816,1,ROOM_C418204E..FACE7,Surface Average Face Conduction Heat Transfer Energy [J] !Hourly
817,1,ROOM_D45983FE..FACE1,Surface Outside Face Solar Radiation Heat Gain Energy [J] !Hourly
818,1,ROOM_D45983FE..FACE1,Surface Average Face Conduction Heat Transfer Energy [J] !Hourly
819,1,ROOM_D45983FE..FACE2,Surface Average Face Conduction Heat Transfer Energy [J] !Hourly
820,1,ROOM_D45983FE..FACE3,Surface Average Face Conduction Heat Transfer Energy [J] !Hourly
821,1,ROOM_D45983FE..FACE4,Surface Average Face Conduction Heat Transfer Energy [J] !Hourly
822,1,ROOM_D45983FE..FACE5,Surface Average Face Conduction Heat Transfer Energy [J] !Hourly
823,1,ROOM_D45983FE..FACE0,Surface Average Face Conduction Heat Transfer Energy [J] !Hourly
824,1,ROOM_D45983FE..FACE6,Surface Average Face Conduction Heat Transfer Energy [J] !Hourly
825,1,ROOM_EFF6C672..FACE1,Surface Outside Face Solar Radiation Heat Gain Energy [J] !Hourly
826,1,ROOM_EFF6C672..FACE1,Surface Average Face Conduction Heat Transfer Energy [J] !Hourly
827,1,ROOM_EFF6C672..FACE2,Surface Outside Face Solar Radiation Heat Gain Energy [J] !Hourly
828,1,ROOM_EFF6C672..FACE2,Surface Average Face Conduction Heat Transfer Energy [J] !Hourly
829,1,ROOM_EFF6C672..FACE3,Surface Average Face Conduction Heat Transfer Energy [J] !Hourly
830,1,ROOM_EFF6C672..FACE4,Surface Average Face Conduction Heat Transfer Energy [J] !Hourly
831,1,ROOM_EFF6C672..FACE5,Surface Average Face Conduction Heat Transfer Energy [J] !Hourly
832,1,ROOM_EFF6C672..FACE6,Surface Average Face Conduction Heat Transfer Energy [J] !Hourly
833,1,ROOM_EFF6C672..FACE0,Surface Average Face Conduction Heat Transfer Energy [J] !Hourly
834,1,ROOM_EFF6C672..FACE7,Surface Average Face Conduction Heat Transfer Energy [J] !Hourly
835,1,ROOM_F2D078AC..FACE1,Surface Average Face Conduction Heat Transfer Energy [J] !Hourly
836,1,ROOM_F2D078AC..FACE2,Surface Average Face Conduction Heat Transfer Energy [J] !Hourly
837,1,ROOM_F2D078AC..FACE3,Surface Outside Face Solar Radiation Heat Gain Energy [J] !Hourly
838,1,ROOM_F2D078AC..FACE3,Surface Average Face Conduction Heat Transfer Energy [J] !Hourly
839,1,ROOM_F2D078AC..FACE4,Surface Outside Face Solar Radiation Heat Gain Energy [J] !Hourly
840,1,ROOM_F2D078AC..FACE4,Surface Average Face Conduction Heat Transfer Energy [J] !Hourly
841,1,ROOM_F2D078AC..FACE0,Surface Average Face Conduction Heat Transfer Energy [J] !Hourly
842,1,ROOM_F2D078AC..FACE5,Surface Average Face Conduction Heat Transfer Energy [J] !Hourly
843,1,ROOM_012C6109,Zone Infiltration Total Heat Loss Energy [J] !Hourly
844,1,ROOM_012C6109,Zone Infiltration Total Heat Gain Energy [J] !Hourly
845,1,ROOM_0A9F4C30,Zone Infiltration Total Heat Loss Energy [J] !Hourly
846,1,ROOM_0A9F4C30,Zone Infiltration Total Heat Gain Energy [J] !Hourly
847,1,ROOM_0EA917C0,Zone Infiltration Total Heat Loss Energy [J] !Hourly
848,1,ROOM_0EA917C0,Zone Infiltration Total Heat Gain Energy [J] !Hourly
849,1,ROOM_26F53AD9,Zone Infiltration Total Heat Loss Energy [J] !Hourly
850,1,ROOM_26F53AD9,Zone Infiltration Total Heat Gain Energy [J] !Hourly
851,1,ROOM_4D7DCD9D,Zone Infiltration Total Heat Loss Energy [J] !Hourly
852,1,ROOM_4D7DCD9D,Zone Infiltration Total Heat Gain Energy [J] !Hourly
853,1,ROOM_641197E7,Zone Infiltration Total Heat Loss Energy [J] !Hourly
854,1,ROOM_641197E7,Zone Infiltration Total Heat Gain Energy [J] !Hourly
855,1,ROOM_6ABD84E9,Zone Infiltration Total Heat Loss Energy [J] !Hourly
856,1,ROOM_6ABD84E9,Zone Infiltration Total Heat Gain Energy [J] !Hourly
857,1,ROOM_7BB421C7,Zone Infiltration Total Heat Loss Energy [J] !Hourly
858,1,ROOM_7BB421C7,Zone Infiltration Total Heat Gain Energy [J] !Hourly
859,1,ROOM_9ED4D22F,Zone Infiltration Total Heat Loss Energy [J] !Hourly
860,1,ROOM_9ED4D22F,Zone Infiltration Total Heat Gain Energy [J] !Hourly
861,1,ROOM_B18E5A77,Zone Infiltration Total Heat Loss Energy [J] !Hourly
862,1,ROOM_B18E5A77,Zone Infiltration Total Heat Gain Energy [J] !Hourly
863,1,ROOM_B5592C9E,Zone Infiltration Total Heat Loss Energy [J] !Hourly
864,1,ROOM_B5592C9E,Zone Infiltration Total Heat Gain Energy [J] !Hourly
865,1,ROOM_C418204E,Zone Infiltration Total Heat Loss Energy [J] !Hourly
866,1,ROOM_C418204E,Zone Infiltration Total Heat Gain Energy [J] !Hourly
867,1,ROOM_D45983FE,Zone Infiltration Total Heat Loss Energy [J] !Hourly
868,1,ROOM_D45983FE,Zone Infiltration Total Heat Gain Energy [J] !Hourly
869,1,ROOM_EFF6C672,Zone Infiltration Total Heat Loss Energy [J] !Hourly
870,1,ROOM_EFF6C672,Zone Infiltration Total Heat Gain Energy [J] !Hourly
871,1,ROOM_F2D078AC,Zone Infiltration Total Heat Loss Energy [J] !Hourly
872,1,ROOM_F2D078AC,Zone Infiltration Total Heat Gain Energy [J] !Hourly
1662,1,ROOM_012C6109 IDEAL LOADS AIR SYSTEM,Zone Ideal Loads Supply Air Total Heating Energy [J] !Hourly
1711,1,ROOM_012C6109 IDEAL LOADS AIR SYSTEM,Zone Ideal Loads Supply Air Total Cooling Energy [J] !Hourly
1760,1,ROOM_012C6109 IDEAL LOADS AIR SYSTEM,Zone Ideal Loads Zone Total Heating Energy [J] !Hourly
1761,1,ROOM_012C6109 IDEAL LOADS AIR SYSTEM,Zone Ideal Loads Zone Total Cooling Energy [J] !Hourly
1762,1,ROOM_0A9F4C30 IDEAL LOADS AIR SYSTEM,Zone Ideal Loads Supply Air Total Heating Energy [J] !Hourly
1763,1,ROOM_0A9F4C30 IDEAL LOADS AIR SYSTEM,Zone Ideal Loads Supply Air Total Cooling Energy [J] !Hourly
1764,1,ROOM_0A9F4C30 IDEAL LOADS AIR SYSTEM,Zone Ideal Loads Zone Total Heating Energy [J] !Hourly
1765,1,ROOM_0A9F4C30 IDEAL LOADS AIR SYSTEM,Zone Ideal Loads Zone Total Cooling Energy [J] !Hourly
1766,1,ROOM_0EA917C0 IDEAL LOADS AIR SYSTEM,Zone Ideal Loads Supply Air Total Heating Energy [J] !Hourly
1767,1,ROOM_0EA917C0 IDEAL LOADS AIR SYSTEM,Zone Ideal Loads Supply Air Total Cooling Energy [J] !Hourly
1768,1,ROOM_0EA917C0 IDEAL LOADS AIR SYSTEM,Zone Ideal Loads Zone Total Heating Energy [J] !Hourly
1769,1,ROOM_0EA917C0 IDEAL LOADS AIR SYSTEM,Zone Ideal Loads Zone Total Cooling Energy [J] !Hourly
1770,1,ROOM_26F53AD9 IDEAL LOADS AIR SYSTEM,Zone Ideal Loads Supply Air Total Heating Energy [J] !Hourly
1771,1,ROOM_26F53AD9 IDEAL LOADS AIR SYSTEM,Zone Ideal Loads Supply Air Total Cooling Energy [J] !Hourly
1772,1,ROOM_26F53AD9 IDEAL LOADS AIR SYSTEM,Zone Ideal Loads Zone Total Heating Energy [J] !Hourly
1773,1,ROOM_26F53AD9 IDEAL LOADS AIR SYSTEM,Zone Ideal Loads Zone Total Cooling Energy [J] !Hourly
1774,1,ROOM_4D7DCD9D IDEAL LOADS AIR SYSTEM,Zone Ideal Loads Supply Air Total Heating Energy [J] !Hourly
1775,1,ROOM_4D7DCD9D IDEAL LOADS AIR SYSTEM,Zone Ideal Loads Supply Air Total Cooling Energy [J] !Hourly
1776,1,ROOM_4D7DCD9D IDEAL LOADS AIR SYSTEM,Zone Ideal Loads Zone Total Heating Energy [J] !Hourly
1777,1,ROOM_4D7DCD9D IDEAL LOADS AIR SYSTEM,Zone Ideal Loads Zone Total Cooling Energy [J] !Hourly
1778,1,ROOM_641197E7 IDEAL LOADS AIR SYSTEM,Zone Ideal Loads Supply Air Total Heating Energy [J] !Hourly
1779,1,ROOM_641197E7 IDEAL LOADS AIR SYSTEM,Zone Ideal Loads Supply Air Total Cooling Energy [J] !Hourly
1780,1,ROOM_641197E7 IDEAL LOADS AIR SYSTEM,Zone Ideal Loads Zone Total Heating Energy [J] !Hourly
1781,1,ROOM_641197E7 IDEAL LOADS AIR SYSTEM,Zone Ideal Loads Zone Total Cooling Energy [J] !Hourly
1782,1,ROOM_6ABD84E9 IDEAL LOADS AIR SYSTEM,Zone Ideal Loads Supply Air Total Heating Energy [J] !Hourly
1783,1,ROOM_6ABD84E9 IDEAL LOADS AIR SYSTEM,Zone Ideal Loads Supply Air Total Cooling Energy [J] !Hourly
1784,1,ROOM_6ABD84E9 IDEAL LOADS AIR SYSTEM,Zone Ideal Loads Zone Total Heating Energy [J] !Hourly
1785,1,ROOM_6ABD84E9 IDEAL LOADS AIR SYSTEM,Zone Ideal Loads Zone Total Cooling Energy [J] !Hourly
1786,1,ROOM_7BB421C7 IDEAL LOADS AIR SYSTEM,Zone Ideal Loads Supply Air Total Heating Energy [J] !Hourly
1787,1,ROOM_7BB421C7 IDEAL LOADS AIR SYSTEM,Zone Ideal Loads Supply Air Total Cooling Energy [J] !Hourly
1788,1,ROOM_7BB421C7 IDEAL LOADS AIR SYSTEM,Zone Ideal Loads Zone Total Heating Energy [J] !Hourly
1789,1,ROOM_7BB421C7 IDEAL LOADS AIR SYSTEM,Zone Ideal Loads Zone Total Cooling Energy [J] !Hourly
1790,1,ROOM_9ED4D22F IDEAL LOADS AIR SYSTEM,Zone Ideal Loads Supply Air Total Heating Energy [J] !Hourly
1791,1,ROOM_9ED4D22F IDEAL LOADS AIR SYSTEM,Zone Ideal Loads Supply Air Total Cooling Energy [J] !Hourly
1792,1,ROOM_9ED4D22F IDEAL LOADS AIR SYSTEM,Zone Ideal Loads Zone Total Heating Energy [J] !Hourly
1793,1,ROOM_9ED4D22F IDEAL LOADS AIR SYSTEM,Zone Ideal Loads Zone Total Cooling Energy [J] !Hourly
1794,1,ROOM_B18E5A77 IDEAL LOADS AIR SYSTEM,Zone Ideal Loads Supply Air Total Heating Energy [J] !Hourly
1795,1,ROOM_B18E5A77 IDEAL LOADS AIR SYSTEM,Zone Ideal Loads Supply Air Total Cooling Energy [J] !Hourly
1796,1,ROOM_B18E5A77 IDEAL LOADS AIR SYSTEM,Zone Ideal Loads Zone Total Heating Energy [J] !Hourly
1797,1,ROOM_B18E5A77 IDEAL LOADS AIR SYSTEM,Zone Ideal Loads Zone Total Cooling Energy [J] !Hourly
1798,1,ROOM_B5592C9E IDEAL LOADS AIR SYSTEM,Zone Ideal Loads Supply Air Total Heating Energy [J] !Hourly
1799,1,ROOM_B5592C9E IDEAL LOADS AIR SYSTEM,Zone Ideal Loads Supply Air Total Cooling Energy [J] !Hourly
1800,1,ROOM_B5592C9E IDEAL LOADS AIR SYSTEM,Zone Ideal Loads Zone Total Heating Energy [J] !Hourly
1801,1,ROOM_B5592C9E IDEAL LOADS AIR SYSTEM,Zone Ideal Loads Zone Total Cooling Energy [J] !Hourly
1802,1,ROOM_C418204E IDEAL LOADS AIR SYSTEM,Zone Ideal Loads Supply Air Total Heating Energy [J] !Hourly
1803,1,ROOM_C418204E IDEAL LOADS AIR SYSTEM,Zone Ideal Loads Supply Air Total Cooling Energy [J] !Hourly
1804,1,ROOM_C418204E IDEAL LOADS AIR SYSTEM,Zone Ideal Loads Zone Total Heating Energy [J] !Hourly
1805,1,ROOM_C418204E IDEAL LOADS AIR SYSTEM,Zone Ideal Loads Zone Total Cooling Energy [J] !Hourly
1806,1,ROOM_D45983FE IDEAL LOADS AIR SYSTEM,Zone Ideal Loads Supply Air Total Heating Energy [J] !Hourly
1807,1,ROOM_D45983FE IDEAL LOADS AIR SYSTEM,Zone Ideal Loads Supply Air Total Cooling Energy [J] !Hourly
1808,1,ROOM_D45983FE IDEAL LOADS AIR SYSTEM,Zone Ideal Loads Zone Total Heating Energy [J] !Hourly
1809,1,ROOM_D45983FE IDEAL LOADS AIR SYSTEM,Zone Ideal Loads Zone Total Cooling Energy [J] !Hourly
1810,1,ROOM_EFF6C672 IDEAL LOADS AIR SYSTEM,Zone Ideal Loads Supply Air Total Heating Energy [J] !Hourly
1811,1,ROOM_EFF6C672 IDEAL LOADS AIR SYSTEM,Zone Ideal Loads Supply Air Total Cooling Energy [J] !Hourly
1812,1,ROOM_EFF6C672 IDEAL LOADS AIR SYSTEM,Zone Ideal Loads Zone Total Heating Energy [J] !Hourly
1813,1,ROOM_EFF6C672 IDEAL LOADS AIR SYSTEM,Zone Ideal Loads Zone Total Cooling Energy [J] !Hourly
1814,1,ROOM_F2D078AC IDEAL LOADS AIR SYSTEM,Zone Ideal Loads Supply Air Total Heating Energy [J] !Hourly
1815,1,ROOM_F2D078AC IDEAL LOADS AIR SYSTEM,Zone Ideal Loads Supply Air Total Cooling Energy [J] !Hourly
1816,1,ROOM_F2D078AC IDEAL LOADS AIR SYSTEM,Zone Ideal Loads Zone Total Heating Energy [J] !Hourly
1817,1,ROOM_F2D078AC IDEAL LOADS AIR SYSTEM,Zone Ideal Loads Zone Total Cooling Energy [J] !Hourly
End of Data Dictionary
1,RUN PERIOD 1,  42.37, -71.02,  -5.00,   6.00
2,1, 1, 1, 0, 1, 0.00,60.00,Sunday
7,0.0
8,0.0
9,0.0
10,0.0
11,0.0
12,0.0
13,0.0
14,0.0
15,0.0
16,0.0
17,0.0
18,0.0
19,0.0
20,0.0
21,0.0
664,0.0
665,0.0
666,0.0
667,0.0
668,0.0
669,0.0
670,0.0
671,0.0
672,0.0
673,0.0
674,0.0
675,0.0
676,0.0
677,0.0
678,0.0
679,0.0
680,149043.54500837855
681,0.0
682,119362.7615676607
683,0.0
684,96843.79883518629
685,0.0
686,245124.279662713
687,0.0
688,256069.39357753157
689,0.0
690,408131.03544403929
691,0.0
692,257274.8430260119
693,0.0
694,282405.5720940231
695,0.0
696,160039.45776190217
697,0.0
698,363169.3816017812
699,0.0
700,163033.924568045
701,0.0
702,195428.00354335478
703,0.0
704,469358.35938348018
705,0.0
706,423836.82238568356
707,0.0
708,224954.55098962363
709,0.0
710,142821.0838984622
711,0.0
712,365475.5315279557
713,0.0
714,365814.79913435838
715,0.0
716,134910.64822784949
717,0.0
718,187182.5790922688
719,0.0
720,137580.55035407455
721,16756.471831102303
722,0.0
723,-104336.58444358609
724,0.0
725,-52217.67894289597
726,117.67268766664154
727,24478.157774545864
728,2544.3333371566047
729,22675.863634257617
730,5029.41542181009
731,0.0
732,-41556.8062216035
733,1735.896425400246
734,294.48965026916826
735,21041.7363421981
736,7442.173292557013
737,4868.172259427166
738,0.0
739,-109659.00527359484
740,0.0
741,-244197.20619902033
742,78215.17571666074
743,7864.293804598034
744,0.0
745,-680844.9802189738
746,-6471.460043541562
747,-22121.440413977078
748,-44885.92252271506
749,4031.924316610672
750,280574.783571759
751,44590.56883836188
752,0.0
753,-476883.00523433307
754,23081.481576884813
755,-3660.846855419514
756,0.0
757,-268803.5166439889
758,237088.74051584785
759,36547.12909330365
760,0.0
761,-149466.42758227033
762,11230.440103040943
763,9042.798752900468
764,-20506.78896971199
765,48599.14214681751
766,8826.912835156829
767,11995.624882798687
768,1982.1574457858158
769,-7584.00194819796
770,-19982.126496757475
771,-7281.678039515428
772,-6149.074991635988
773,14284.95461486249
774,4316.35763727311
775,7577.142973537018
776,554.3366258667834
777,-12815.311562585563
778,-14.897863503215394
779,9600.175540523443
780,2625.1206368363825
781,14095.618498577105
782,19498.92743109241
783,-15295.592747168695
784,0.0
785,-161066.723031734
786,0.0
787,-90310.58925583515
788,-5965.208371689438
789,8374.481120770459
790,59436.28753383522
791,8398.165836081867
792,20580.158903292784
793,4521.470418311521
794,0.0
795,-84219.54400203476
796,-7385.762754408682
797,13002.544358916555
798,1610.1268733848136
799,51814.055195875364
800,0.0
801,-274625.0480095764
802,0.0
803,-188483.60622574617
804,11298.0573796738
805,110368.22245067096
806,13574.234995009732
807,2031.1709432590142
808,15973.025951563108
809,0.0
810,-413806.34988461728
811,0.0
812,-105695.10533052178
813,4862.407225276935
814,-16631.969984841857
815,182715.0294726406
816,29536.847764515256
817,0.0
818,-665224.0437216578
819,-6403.976469919016
820,-2989.588619799102
821,-6305.548489028016
822,-12308.40675793801
823,278596.7668980707
824,45590.75838138231
825,0.0
826,-687423.1462971617
827,0.0
828,-96116.46285438836
829,-15425.688756610505
830,-22962.47930454045
831,-4613.559928739049
832,12775.092717860702
833,228931.76011864295
834,33480.6055448752
835,25191.267681129768
836,-3594.1060103111315
837,0.0
838,-80198.6746021373
839,0.0
840,-62735.341322308836
841,22522.57332269245
842,3101.039196659074
843,177214.63051248587
844,0.0
845,71312.3983420496
846,0.0
847,319702.99537346549
848,0.0
849,243902.56259346385
850,0.0
851,327647.5845190769
852,0.0
853,97467.71457115868
854,0.0
855,0.0
856,0.0
857,0.0
858,0.0
859,329960.66069389789
860,0.0
861,123723.7888118441
862,0.0
863,568164.6266780545
864,0.0
865,222918.05494160154
866,0.0
867,214683.45357660025
868,0.0
869,309504.61677111269
870,0.0